 &FCI NORB=  20,NELEC=30,MS2=0,
  ORBSYM=1,1,1,1,1,1,1,1,1,1,1,1,1,1,1,1,1,1,1,1,
  ISYM=1,
 &END
 0.3727855326817558    1    1    1    1
 -0.001498906540849876    2    1    1    1
 0.04620019000047296    2    1    2    1
 0.3650603280998417    2    2    1    1
 0.0007140776231782188    2    2    2    1
 0.3969910297701063    2    2    2    2
 -0.001700192805189001    3    1    1    1
 0.004005846403549645    3    1    2    1
 -0.006033074125493432    3    1    2    2
 0.006927977780302992    3    1    3    1
 0.001195619407099638    3    2    1    1
 0.003208389767094989    3    2    2    1
 -0.003012477880349473    3    2    2    2
 0.001371181290885578    3    2    3    1
 0.01345164209263808    3    2    3    2
 0.3507811895721539    3    3    1    1
 0.002125409451088604    3    3    2    1
 0.3989114311043637    3    3    2    2
 -0.01479159875415494    3    3    3    1
 -0.007632101372373466    3    3    3    2
 0.4812186628741089    3    3    3    3
 0.0003254334030107752    4    1    1    1
 -0.0009514486755356717    4    1    2    1
 0.001068294979316573    4    1    2    2
 -0.0004238435375809741    4    1    3    1
 -0.004758702262548394    4    1    3    2
 0.002358930790529814    4    1    3    3
 0.01332588522889853    4    1    4    1
 -0.000377088407718436    4    2    1    1
 0.001346435229551527    4    2    2    1
 0.002703744496727297    4    2    2    2
 -0.001695023083871253    4    2    3    1
 -0.00263128527482535    4    2    3    2
 0.008367834219220079    4    2    3    3
 0.004951523326369266    4    2    4    1
 0.01323905936003324    4    2    4    2
 -0.0007210377858458035    4    3    1    1
 -0.01214052770518788    4    3    2    1
 -0.004762487886964894    4    3    2    2
 0.0007061919528900052    4    3    3    1
 0.02029251435062067    4    3    3    2
 -0.01489035886000494    4    3    3    3
 -0.04894279733248738    4    3    4    1
 -0.02896457063484577    4    3    4    2
 0.289256572349034    4    3    4    3
 0.3518201533639192    4    4    1    1
 0.0003026524699646897    4    4    2    1
 0.4027399821155019    4    4    2    2
 -0.01846823652801576    4    4    3    1
 -0.00824661083000016    4    4    3    2
 0.4895636984490224    4    4    3    3
 -0.003285240799558973    4    4    4    1
 0.004254093732775261    4    4    4    2
 0.01954778754839728    4    4    4    3
 0.5058681700721145    4    4    4    4
 0.001422846860911616    5    1    1    1
 -5.497215898398228e-05    5    1    2    1
 0.002244847735169132    5    1    2    2
 -0.0005104067410759086    5    1    3    1
 -0.003594297211584711    5    1    3    2
 0.00443865120231599    5    1    3    3
 0.009650780638925651    5    1    4    1
 0.004910860305190187    5    1    4    2
 -0.04629692717784172    5    1    4    3
 -0.0009130807109934445    5    1    4    4
 0.01643133210290572    5    1    5    1
 0.0007895440055054435    5    2    1    1
 -0.0002220494787122577    5    2    2    1
 0.002234943874352311    5    2    2    2
 -0.0001896142987441702    5    2    3    1
 9.798593312102998e-06    5    2    3    2
 0.00101893243603954    5    2    3    3
 0.0005676039358581058    5    2    4    1
 0.0002049380461023986    5    2    4    2
 -0.001304711424542309    5    2    4    3
 0.001000087537286562    5    2    4    4
 0.0003322643329663729    5    2    5    1
 0.004201061834374194    5    2    5    2
 1.092003684954436e-05    5    3    1    1
 0.0001576179004683417    5    3    2    1
 0.0004660112737865531    5    3    2    2
 0.000180056873044872    5    3    3    1
 -0.001079063757625047    5    3    3    2
 0.000864378909130165    5    3    3    3
 -0.0006199106294813233    5    3    4    1
 0.001159171976321948    5    3    4    2
 -0.01263329582429576    5    3    4    3
 -0.0007802325160554183    5    3    4    4
 0.002001922231732733    5    3    5    1
 -0.0005457234952159821    5    3    5    2
 0.01032916641462251    5    3    5    3
 0.009364578235966979    5    4    1    1
 0.000291636653074781    5    4    2    1
 0.009507869614785922    5    4    2    2
 -0.002766499997178852    5    4    3    1
 -0.0002605844459269851    5    4    3    2
 0.009800586088580955    5    4    3    3
 8.298408590195442e-05    5    4    4    1
 6.996935907085491e-05    5    4    4    2
 -0.0007453824024945598    5    4    4    3
 0.01322407233401239    5    4    4    4
 0.0002779794907277904    5    4    5    1
 0.0006117552238272721    5    4    5    2
 -0.0003945029498365602    5    4    5    3
 0.009965621278453256    5    4    5    4
 0.2661565875697617    5    5    1    1
 0.0001691412310587156    5    5    2    1
 0.2812962604954585    5    5    2    2
 -0.00523317813701118    5    5    3    1
 -0.003066101180031205    5    5    3    2
 0.3036976646492897    5    5    3    3
 0.001453402631929812    5    5    4    1
 0.002920274365759451    5    5    4    2
 -0.007608654148237183    5    5    4    3
 0.3059103792639884    5    5    4    4
 0.001933812808606244    5    5    5    1
 0.000156720739054727    5    5    5    2
 0.0005823741341087769    5    5    5    3
 0.003576238916636836    5    5    5    4
 0.2468607251875399    5    5    5    5
 -0.02899116492827339    6    1    1    1
 -0.0002971435647363246    6    1    2    1
 -0.03705613776341284    6    1    2    2
 0.002967340253493435    6    1    3    1
 0.00131459780847037    6    1    3    2
 -0.04796514644675832    6    1    3    3
 -0.0003625603466314452    6    1    4    1
 -0.0003240915919110634    6    1    4    2
 0.002096608906751828    6    1    4    3
 -0.05087831145378102    6    1    4    4
 -0.0006974954997275852    6    1    5    1
 -0.001073634141710964    6    1    5    2
 -0.00017867993217003    6    1    5    3
 -0.003389386133521518    6    1    5    4
 -0.01983745948007981    6    1    5    5
 0.0162647906675112    6    1    6    1
 -0.0003717148152631162    6    2    1    1
 0.003501370233238737    6    2    2    1
 0.001227576515507117    6    2    2    2
 -0.0001246815777722316    6    2    3    1
 -0.007810318385635187    6    2    3    2
 0.004318935841748844    6    2    3    3
 0.01837151290655738    6    2    4    1
 0.01128933297812476    6    2    4    2
 -0.1030980390780551    6    2    4    3
 -0.008294904894439292    6    2    4    4
 0.01723058864543761    6    2    5    1
 0.0004260218181184982    6    2    5    2
 0.005827143279161998    6    2    5    3
 -0.000539322971820354    6    2    5    4
 0.002698654899101595    6    2    5    5
 -0.0006900175752834632    6    2    6    1
 0.04832949085372157    6    2    6    2
 0.001315656945320779    6    3    1    1
 0.0005656119654511249    6    3    2    1
 -8.634422220912707e-05    6    3    2    2
 -0.001741353533589945    6    3    3    1
 -0.0005630487379299024    6    3    3    2
 0.000834790574833922    6    3    3    3
 0.002109181509480222    6    3    4    1
 -0.00441109080013164    6    3    4    2
 -0.01178563630648185    6    3    4    3
 0.002549601595451638    6    3    4    4
 0.001905126085636772    6    3    5    1
 0.0007860408230281759    6    3    5    2
 0.0002066590704124528    6    3    5    3
 0.007318433454371006    6    3    5    4
 -0.0006400945071099076    6    3    5    5
 -0.0004706611236542552    6    3    6    1
 0.004199215332211022    6    3    6    2
 0.009923092101641521    6    3    6    3
 0.0003964628951455625    6    4    1    1
 -0.0007299188381821651    6    4    2    1
 0.001357344407941066    6    4    2    2
 0.0002208738068002491    6    4    3    1
 -0.004204186168074837    6    4    3    2
 -0.001908549879523767    6    4    3    3
 -0.006735137148151173    6    4    4    1
 -0.003074011142442524    6    4    4    2
 0.02520823889131521    6    4    4    3
 0.002502479915981755    6    4    4    4
 -0.006126472155203906    6    4    5    1
 -0.0008409615166830056    6    4    5    2
 0.006100894161337553    6    4    5    3
 0.0004621466634043299    6    4    5    4
 -0.000313215259515828    6    4    5    5
 2.025780591350067e-05    6    4    6    1
 -0.009339774032196059    6    4    6    2
 -0.0007781729827427216    6    4    6    3
 0.01215015920149938    6    4    6    4
 0.0003348849152080264    6    5    1    1
 -0.01285861181581166    6    5    2    1
 -0.001649496474056053    6    5    2    2
 -0.0004510395700158918    6    5    3    1
 0.007524328986374144    6    5    3    2
 -0.006167091226573977    6    5    3    3
 -0.02007855154218671    6    5    4    1
 -0.01172076106668724    6    5    4    2
 0.1127391993608886    6    5    4    3
 0.007327805401059445    6    5    4    4
 -0.01458176468538373    6    5    5    1
 -9.352570858964526e-05    6    5    5    2
 -0.006668479819809021    6    5    5    3
 -0.0002855843047111579    6    5    5    4
 -0.004574615395643568    6    5    5    5
 0.001117735797829078    6    5    6    1
 -0.04579990099973689    6    5    6    2
 -0.004913427988576348    6    5    6    3
 0.008086869915601707    6    5    6    4
 0.07382973080663366    6    5    6    5
 0.2834433606119613    6    6    1    1
 -0.0003477436428932219    6    6    2    1
 0.307463699747575    6    6    2    2
 -0.0076092097803442    6    6    3    1
 -0.003012660206424993    6    6    3    2
 0.335906642164541    6    6    3    3
 -0.0004836333111287752    6    6    4    1
 0.001861107384231765    6    6    4    2
 0.003049563456950284    6    6    4    3
 0.3419821144344927    6    6    4    4
 0.0009409043945575738    6    6    5    1
 -0.00254662505798713    6    6    5    2
 -0.0003664279728297923    6    6    5    3
 0.005490436894154738    6    6    5    4
 0.2581058842903406    6    6    5    5
 -0.02838613388781684    6    6    6    1
 -0.001779671843290797    6    6    6    2
 -0.0008656562793446389    6    6    6    3
 0.0004749396981056994    6    6    6    4
 0.002017708460589344    6    6    6    5
 0.281035733941967    6    6    6    6
 -0.02057393734288903    7    1    1    1
 -8.613798984146639e-05    7    1    2    1
 -0.02528411591657324    7    1    2    2
 0.002548005948005083    7    1    3    1
 0.001017242057813981    7    1    3    2
 -0.03762158712591335    7    1    3    3
 0.001050232475712998    7    1    4    1
 -0.00181039088673173    7    1    4    2
 -0.005681396988288462    7    1    4    3
 -0.04081929705501235    7    1    4    4
 0.0006264892330313326    7    1    5    1
 0.001091378111868138    7    1    5    2
 0.0003898646265794297    7    1    5    3
 -0.002417422694600089    7    1    5    4
 -0.01549879657401016    7    1    5    5
 0.004922738606483035    7    1    6    1
 0.002552588365178443    7    1    6    2
 0.0001996769758643714    7    1    6    3
 -0.0006546475851896607    7    1    6    4
 -0.002165659642815017    7    1    6    5
 -0.01967377555018429    7    1    6    6
 0.01602334650070745    7    1    7    1
 -0.0009856015534888943    7    2    1    1
 0.00140483189453695    7    2    2    1
 -0.00327290919203824    7    2    2    2
 0.001412733830541989    7    2    3    1
 0.01286480061595405    7    2    3    2
 -0.007994055853336939    7    2    3    3
 -0.02801375694935046    7    2    4    1
 -0.01663600071044316    7    2    4    2
 0.1516830887619357    7    2    4    3
 0.009687194326888103    7    2    4    4
 -0.02659206607384948    7    2    5    1
 -0.0009860047943207029    7    2    5    2
 -0.007296333335979313    7    2    5    3
 -0.000841183119917423    7    2    5    4
 -0.004681039009433193    7    2    5    5
 0.001457126999101684    7    2    6    1
 -0.06643866735568919    7    2    6    2
 -0.006942254129982482    7    2    6    3
 0.0135888197040028    7    2    6    4
 0.05962123619186475    7    2    6    5
 0.001213709460737856    7    2    6    6
 -0.003440914164205624    7    2    7    1
 0.1048456977815632    7    2    7    2
 0.001148415892276032    7    3    1    1
 0.0003591259899861014    7    3    2    1
 0.001753686313137246    7    3    2    2
 -0.001649634079976153    7    3    3    1
 0.0009022527649835915    7    3    3    2
 -0.0007462080040521586    7    3    3    3
 -0.003106062152310331    7    3    4    1
 0.006574191834648082    7    3    4    2
 0.0162746778490334    7    3    4    3
 0.001637727691782585    7    3    4    4
 -0.002675374103857206    7    3    5    1
 0.0002159677906835599    7    3    5    2
 -0.0009445834980658136    7    3    5    3
 0.004549753430810509    7    3    5    4
 -0.0009193356003897076    7    3    5    5
 1.836155085034236e-06    7    3    6    1
 -0.006614315402472665    7    3    6    2
 -0.001917817285657285    7    3    6    3
 0.001668135735596965    7    3    6    4
 0.006062459064338513    7    3    6    5
 -0.0001673269858400766    7    3    6    6
 -0.0003338921448085705    7    3    7    1
 0.009650274780567191    7    3    7    2
 0.01105874695738646    7    3    7    3
 0.0005261406347342199    7    4    1    1
 -0.001083275026241439    7    4    2    1
 -0.001225751305972724    7    4    2    2
 -0.0004146040942498381    7    4    3    1
 0.008737147476697116    7    4    3    2
 0.002516151860057724    7    4    3    3
 -0.002675869644884176    7    4    4    1
 0.0004497568714754691    7    4    4    2
 0.000972422532198168    7    4    4    3
 0.0009883995059646843    7    4    4    4
 -0.00149168373046804    7    4    5    1
 -0.0004735675873574496    7    4    5    2
 0.004442327395018582    7    4    5    3
 0.0004214554646110672    7    4    5    4
 0.0003481625641627374    7    4    5    5
 -0.0002477275796131254    7    4    6    1
 0.0007560281409308856    7    4    6    2
 0.0003582563974426217    7    4    6    3
 -0.001244305076194192    7    4    6    4
 -0.001403406611305552    7    4    6    5
 0.0003456785381935151    7    4    6    6
 -0.0001942426776563854    7    4    7    1
 0.0005861811603827887    7    4    7    2
 0.000400234419227822    7    4    7    3
 0.01031508709098373    7    4    7    4
 -0.0007111652758438956    7    5    1    1
 0.01040280557371174    7    5    2    1
 -0.001224342221898825    7    5    2    2
 0.001507637884253131    7    5    3    1
 0.006812641039315927    7    5    3    2
 -0.003148996673860007    7    5    3    3
 -0.01439362554752869    7    5    4    1
 -0.007550345407330118    7    5    4    2
 0.0727498136457151    7    5    4    3
 0.005330401913250011    7    5    4    4
 -0.01099284579692866    7    5    5    1
 -0.0005679369938557717    7    5    5    2
 -0.004385561446421798    7    5    5    3
 -0.0001965173794195327    7    5    5    4
 -0.003175791143000532    7    5    5    5
 0.0003727811523573744    7    5    6    1
 -0.02672101099150401    7    5    6    2
 -0.002893347466286907    7    5    6    3
 0.004434654198814905    7    5    6    4
 0.03754246951366397    7    5    6    5
 0.001233431079886601    7    5    6    6
 -0.001732715027075146    7    5    7    1
 0.04712000146234283    7    5    7    2
 0.004750975324520022    7    5    7    3
 -0.0001990355112818146    7    5    7    4
 0.03932431557084043    7    5    7    5
 -0.0404138056563104    7    6    1    1
 0.0004925502456594617    7    6    2    1
 -0.05238978738470088    7    6    2    2
 0.0007119087885081753    7    6    3    1
 -0.0003290668077395802    7    6    3    2
 -0.04551482942129411    7    6    3    3
 -0.0008977826971198029    7    6    4    1
 0.0002077088018484783    7    6    4    2
 0.004448291468377715    7    6    4    3
 -0.04521086683499533    7    6    4    4
 -0.001000382225506757    7    6    5    1
 -0.0002594390438562159    7    6    5    2
 -0.0002642793927090553    7    6    5    3
 -0.002530863995803246    7    6    5    4
 -0.01736519726157567    7    6    5    5
 0.008066608612130136    7    6    6    1
 -0.001578942283787022    7    6    6    2
 -0.0005844465199063151    7    6    6    3
 0.0001512613201589976    7    6    6    4
 0.002124348748698029    7    6    6    5
 -0.02359297806643302    7    6    6    6
 0.00387794625379679    7    6    7    1
 0.0026303933031025    7    6    7    2
 -3.618472567131595e-05    7    6    7    3
 -0.0001224643649008006    7    6    7    4
 0.001910366543667276    7    6    7    5
 0.01957553913486919    7    6    7    6
 0.3184139670858756    7    7    1    1
 -0.0001457493195526312    7    7    2    1
 0.3508712852856758    7    7    2    2
 -0.007057585607555217    7    7    3    1
 -0.001466801679524675    7    7    3    2
 0.3670955975146378    7    7    3    3
 -0.001038232705890516    7    7    4    1
 0.001892689434714948    7    7    4    2
 0.005890368953879157    7    7    4    3
 0.3725483467899409    7    7    4    4
 0.0002231713354265945    7    7    5    1
 0.004801251140910926    7    7    5    2
 0.0002354102166105689    7    7    5    3
 0.007453714205880509    7    7    5    4
 0.2689915869125714    7    7    5    5
 -0.03193184350892943    7    7    6    1
 -0.002694052892772905    7    7    6    2
 -0.0002174310764159119    7    7    6    3
 0.0008948840378999153    7    7    6    4
 0.00303570308648542    7    7    6    5
 0.2881551696897552    7    7    6    6
 -0.02435459765223956    7    7    7    1
 0.003344687747913038    7    7    7    2
 0.0008580301507758916    7    7    7    3
 0.0005583620898593932    7    7    7    4
 0.002177260191945361    7    7    7    5
 -0.03880739132364347    7    7    7    6
 0.3264380913579069    7    7    7    7
 0.0002431180187855724    8    1    1    1
 0.008844950585636363    8    1    2    1
 0.002464894770407619    8    1    2    2
 -0.0001794676383140968    8    1    3    1
 -0.009054822337017448    8    1    3    2
 0.007511503865841812    8    1    3    3
 0.0253614437580617    8    1    4    1
 0.01380536102048383    8    1    4    2
 -0.1317959641959735    8    1    4    3
 -0.008245724645053016    8    1    4    4
 0.02562306495695211    8    1    5    1
 0.0006898758151202332    8    1    5    2
 0.006819906956419972    8    1    5    3
 0.000387865084029853    8    1    5    4
 0.004604142404745132    8    1    5    5
 -0.001308862671330961    8    1    6    1
 0.05581662625108972    8    1    6    2
 0.006011193149412796    8    1    6    3
 -0.01277458317804948    8    1    6    4
 -0.06510779152642214    8    1    6    5
 -0.001425192982525047    8    1    6    6
 0.002980086008166244    8    1    7    1
 -0.0820222797536909    8    1    7    2
 -0.008298565824413785    8    1    7    3
 -6.601541540750157e-05    8    1    7    4
 -0.04068513632670995    8    1    7    5
 -0.002456862399264287    8    1    7    6
 -0.003006290766604403    8    1    7    7
 0.08107793707951726    8    1    8    1
 0.002150118305361278    8    2    1    1
 -0.0001310917580659468    8    2    2    1
 -0.0005394254287284226    8    2    2    2
 -0.0001783524207094742    8    2    3    1
 -0.000256893786759887    8    2    3    2
 0.0002529510355994093    8    2    3    3
 0.0009482739171526379    8    2    4    1
 0.0001222335279074937    8    2    4    2
 -0.001474682983202606    8    2    4    3
 0.000486956115101654    8    2    4    4
 0.0004691947689479671    8    2    5    1
 0.0005664910129452156    8    2    5    2
 -0.0005068908663205248    8    2    5    3
 0.0005321131281767252    8    2    5    4
 0.0001002554701430413    8    2    5    5
 0.004621610535396189    8    2    6    1
 0.0006263947222998256    8    2    6    2
 0.001492747303960236    8    2    6    3
 -0.0006402482032502612    8    2    6    4
 -0.0006796210761933815    8    2    6    5
 -0.003145161835718638    8    2    6    6
 -0.007750416038853921    8    2    7    1
 -0.001186827497390029    8    2    7    2
 -0.001342104395606247    8    2    7    3
 -0.0003844583227008474    8    2    7    4
 -0.0007111185833529424    8    2    7    5
 0.001834995037488984    8    2    7    6
 0.001626119801119783    8    2    7    7
 0.00110518511290453    8    2    8    1
 0.009272878368040659    8    2    8    2
 -4.530051531683517e-05    8    3    1    1
 0.001986991198693894    8    3    2    1
 0.0002833830862973823    8    3    2    2
 0.0003344097563837438    8    3    3    1
 -0.002525480589724294    8    3    3    2
 0.001939830734772915    8    3    3    3
 0.0009466261557768316    8    3    4    1
 0.003753169562397645    8    3    4    2
 -0.03880863429935615    8    3    4    3
 -0.002842884451509283    8    3    4    4
 0.006211297041383905    8    3    5    1
 -0.0004018324165763844    8    3    5    2
 0.007870495541444967    8    3    5    3
 -0.0001026524372547723    8    3    5    4
 0.001025502855163994    8    3    5    5
 0.0002900475236671753    8    3    6    1
 0.01524857812169257    8    3    6    2
 0.00155885691399344    8    3    6    3
 0.001667652769172645    8    3    6    4
 -0.01655050550240901    8    3    6    5
 -0.0009581541130527072    8    3    6    6
 2.843268770346319e-05    8    3    7    1
 -0.02157666201171774    8    3    7    2
 -0.002439740418639125    8    3    7    3
 0.003359747496818332    8    3    7    4
 -0.01038897420428511    8    3    7    5
 -0.0003738860445765973    8    3    7    6
 -0.0008392415696852825    8    3    7    7
 0.01919637142924769    8    3    8    1
 0.0002711286345967447    8    3    8    2
 0.01454285713059504    8    3    8    3
 0.004763467017046407    8    4    1    1
 0.0007529108139466808    8    4    2    1
 0.002802716348663352    8    4    2    2
 -0.005479593413556387    8    4    3    1
 6.853693051193288e-06    8    4    3    2
 -0.0006876069265418313    8    4    3    3
 -0.0001141997285592287    8    4    4    1
 0.0003578983467925505    8    4    4    2
 -0.001368148870435719    8    4    4    3
 0.003443298851765752    8    4    4    4
 0.0002993285622577149    8    4    5    1
 0.0003604647351812186    8    4    5    2
 -0.00013261046522698    8    4    5    3
 0.006408433811379271    8    4    5    4
 0.002065062392683467    8    4    5    5
 -0.002641137139873984    8    4    6    1
 -5.766721257376157e-05    8    4    6    2
 0.004746405133066097    8    4    6    3
 0.0003249278247746566    8    4    6    4
 -0.0005253165749034716    8    4    6    5
 0.003701345784247395    8    4    6    6
 -0.000875302977406841    8    4    7    1
 -0.00100150562352284    8    4    7    2
 0.003292631744975654    8    4    7    3
 0.0003514534238900459    8    4    7    4
 -0.0002159021886107423    8    4    7    5
 0.0003782794944099451    8    4    7    6
 0.002406058223629555    8    4    7    7
 0.000628391215146483    8    4    8    1
 -3.811251591723491e-05    8    4    8    2
 8.690862590409838e-05    8    4    8    3
 0.01002075386847287    8    4    8    4
 0.04813670717311302    8    5    1    1
 0.0004824020683372485    8    5    2    1
 0.06236809814667942    8    5    2    2
 -0.004849927619991259    8    5    3    1
 -0.00304338910663782    8    5    3    2
 0.08843591389774447    8    5    3    3
 0.0006059319579666763    8    5    4    1
 0.002591168165110199    8    5    4    2
 -0.003046731738666096    8    5    4    3
 0.09295019695304969    8    5    4    4
 0.001772020940287911    8    5    5    1
 -3.838839666252389e-05    8    5    5    2
 0.0003019236132350538    8    5    5    3
 0.003211908649486063    8    5    5    4
 0.03584034754674959    8    5    5    5
 -0.02280926505074555    8    5    6    1
 0.0008702649876345002    8    5    6    2
 -0.001484291742202167    8    5    6    3
 -0.0001695747801314119    8    5    6    4
 -0.001454633111226783    8    5    6    5
 0.05013201033750667    8    5    6    6
 -0.01719777570016976    8    5    7    1
 -0.001994664630624288    8    5    7    2
 -0.00117281027917223    8    5    7    3
 0.0002336434355240647    8    5    7    4
 -0.0004698652203633753    8    5    7    5
 -0.01045762688313659    8    5    7    6
 0.05477407238735193    8    5    7    7
 0.002029393591668413    8    5    8    1
 1.387775498995115e-05    8    5    8    2
 0.0003795860397853016    8    5    8    3
 0.001804258652453448    8    5    8    4
 0.04242613973746227    8    5    8    5
 0.0002410466664974157    8    6    1    1
 0.009111909227169573    8    6    2    1
 -0.0001177369903059787    8    6    2    2
 0.001409613354207902    8    6    3    1
 0.007862137492073205    8    6    3    2
 -0.00210102928570841    8    6    3    3
 -0.01594079186436955    8    6    4    1
 -0.008339624160435481    8    6    4    2
 0.08036515243234224    8    6    4    3
 0.007179737993190984    8    6    4    4
 -0.02237219132632146    8    6    5    1
 -0.0004754899885567965    8    6    5    2
 -0.005130550983506928    8    6    5    3
 -0.0001714865096443834    8    6    5    4
 -0.001507169531979592    8    6    5    5
 0.000125584719472167    8    6    6    1
 -0.0330080108989247    8    6    6    2
 -0.003571279222347091    8    6    6    3
 0.008354311595736361    8    6    6    4
 0.027552367792354    8    6    6    5
 0.001463359145547906    8    6    6    6
 -0.002170661915003658    8    6    7    1
 0.04854842022155322    8    6    7    2
 0.004884311395481358    8    6    7    3
 0.001345268263231591    8    6    7    4
 0.02296476492477164    8    6    7    5
 0.001166429343328446    8    6    7    6
 0.002820037039819411    8    6    7    7
 -0.04336800952791325    8    6    8    1
 -0.0006469286491692544    8    6    8    2
 -0.01193932481940592    8    6    8    3
 -0.0003477524168270173    8    6    8    4
 -0.0005277976907052401    8    6    8    5
 0.03925719098853853    8    6    8    6
 0.001463935664706066    8    7    1    1
 -0.02148293011177178    8    7    2    1
 0.0001818845975035557    8    7    2    2
 -0.001923001773534162    8    7    3    1
 0.000543205545661672    8    7    3    2
 -0.001313981339369063    8    7    3    3
 -0.00796553175317612    8    7    4    1
 -0.005271622703082592    8    7    4    2
 0.05101742406441949    8    7    4    3
 0.005490856270755178    8    7    4    4
 -0.01296834085535729    8    7    5    1
 -0.0002756020835389402    8    7    5    2
 -0.002915252064829196    8    7    5    3
 -4.337890232882315e-05    8    7    5    4
 -0.0002085605974406915    8    7    5    5
 -0.000233854267964206    8    7    6    1
 -0.01766461232012204    8    7    6    2
 -0.001978303603053985    8    7    6    3
 0.005726474599316161    8    7    6    4
 0.02205653211021579    8    7    6    5
 0.00190126318150432    8    7    6    6
 -0.001711880675563375    8    7    7    1
 0.02647206213845337    8    7    7    2
 0.002621243082803473    8    7    7    3
 0.0002512529693839412    8    7    7    4
 0.005521397499016821    8    7    7    5
 0.0004781770529293175    8    7    7    6
 0.002229942062480247    8    7    7    7
 -0.02941889672210241    8    7    8    1
 -0.0001222754692082561    8    7    8    2
 -0.008084479941235642    8    7    8    3
 -0.0002189095269601277    8    7    8    4
 0.0002744971382723911    8    7    8    5
 0.01324968865508648    8    7    8    6
 0.02595165422092281    8    7    8    7
 0.3172544116470774    8    8    1    1
 0.001074354312041701    8    8    2    1
 0.3414382557226126    8    8    2    2
 -0.00744079391924732    8    8    3    1
 -0.003616261742880441    8    8    3    2
 0.3748049373216463    8    8    3    3
 0.0001854476603927188    8    8    4    1
 0.003059543845198431    8    8    4    2
 -0.0005959973554918007    8    8    4    3
 0.3813822724211482    8    8    4    4
 0.001838293183697531    8    8    5    1
 0.0005207250392737362    8    8    5    2
 0.000211157520470752    8    8    5    3
 0.007330553130713536    8    8    5    4
 0.2727977793457118    8    8    5    5
 -0.03957085036741022    8    8    6    1
 -0.0004594977451218668    8    8    6    2
 -0.001687692870531074    8    8    6    3
 0.0002846129713059391    8    8    6    4
 -0.0006464794844845082    8    8    6    5
 0.2964681656727006    8    8    6    6
 -0.03088316010072874    8    8    7    1
 -0.0005222807878377374    8    8    7    2
 -0.001261976754929851    8    8    7    3
 0.0005197073627439573    8    8    7    4
 0.0003104695122496674    8    8    7    5
 -0.03202763584119522    8    8    7    6
 0.3186991222840573    8    8    7    7
 0.0009086115602875997    8    8    8    1
 0.0006962987905444328    8    8    8    2
 -4.398603075001481e-05    8    8    8    3
 0.003831137320159177    8    8    8    4
 0.07025637959844383    8    8    8    5
 0.001306035095412604    8    8    8    6
 0.001157651100325398    8    8    8    7
 0.3365569591548965    8    8    8    8
 0.0002652012260694975    9    1    1    1
 -0.0007418431620115661    9    1    2    1
 -0.0004833477103680529    9    1    2    2
 -5.895536299459329e-05    9    1    3    1
 0.002369804954311305    9    1    3    2
 -3.481349621762379e-05    9    1    3    3
 -0.0001986786173420435    9    1    4    1
 0.0001501365437414573    9    1    4    2
 -0.0005874874111363993    9    1    4    3
 -0.0007050564027675122    9    1    4    4
 0.0001403203410898534    9    1    5    1
 -4.173576283397534e-05    9    1    5    2
 0.0003936042303691433    9    1    5    3
 -5.581235983644683e-05    9    1    5    4
 -0.0002976149911659055    9    1    5    5
 0.0001235365528241404    9    1    6    1
 0.0006243617086568898    9    1    6    2
 2.358914075787698e-05    9    1    6    3
 -0.0002954092852042685    9    1    6    4
 -0.000588457941076519    9    1    6    5
 -0.0004193743125142062    9    1    6    6
 0.000200286928225567    9    1    7    1
 -0.0001260712761701774    9    1    7    2
 -2.500094480574312e-05    9    1    7    3
 0.001473648399952171    9    1    7    4
 0.0001369627618460794    9    1    7    5
 -0.0001982715622587629    9    1    7    6
 -0.0002666283856377993    9    1    7    7
 0.0004362298669253971    9    1    8    1
 -3.925609230398703e-05    9    1    8    2
 0.0001457931037705893    9    1    8    3
 -7.908560641153147e-05    9    1    8    4
 -0.0002305785195662852    9    1    8    5
 -0.0005960401503158876    9    1    8    6
 0.0001026065434678003    9    1    8    7
 -0.000612612835311659    9    1    8    8
 0.007380209073806808    9    1    9    1
 -0.002100743233030453    9    2    1    1