 &FCI NORB=  28,NELEC=14,MS2=0,
  ORBSYM=1,1,1,1,1,1,1,1,1,1,1,1,1,1,1,1,1,1,1,1,1,1,1,1,1,1,1,1,
  ISYM=1,
 &END
 2.350080514868962    1    1    1    1
 -2.072669293140539e-13    2    1    1    1
 1.765659995106621    2    1    2    1
 2.354186911748605    2    2    1    1
 2.133037670104532e-13    2    2    2    1
 2.358312362092738    2    2    2    2
 -0.2197678858815771    3    1    1    1
 1.404870889217501e-14    3    1    2    1
 -0.2207010229583257    3    1    2    2
 0.04857506707658828    3    1    3    1
 1.534086442947502e-14    3    2    1    1
 -0.2410420939039926    3    2    2    1
 -4.209713429085583e-14    3    2    2    2
 0.04757298046855989    3    2    3    2
 0.9586350754275079    3    3    1    1
 0.9581180393474003    3    3    2    2
 0.0115297137050972    3    3    3    1
 0.9338909019284658    3    3    3    3
 0.01463865192445053    4    1    4    1
 1.057809273153381e-15    4    2    1    1
 1.060647691199475e-15    4    2    2    2
 0.01327348022924199    4    2    4    2
 0.02215538466560762    4    3    4    1
 1.339416119032526e-15    4    3    4    2
 0.1190391435269436    4    3    4    3
 0.7564584888804987    4    4    1    1
 1.025574269439432e-15    4    4    2    1
 0.7563589527222218    4    4    2    2
 0.002355304916423656    4    4    3    1
 0.713189786817101    4    4    3    3
 0.6439660600723767    4    4    4    4
 -1.714795796362768e-15    5    1    2    1
 0.01463865192445055    5    1    5    1
 -1.858191068184911e-15    5    2    1    1
 -1.8641568995545e-15    5    2    2    2
 0.01327348022924202    5    2    5    2
 1.339679246354578e-15    5    3    2    1
 0.02215538466560765    5    3    5    1
 1.33273566032956e-15    5    3    5    2
 0.1190391435269438    5    3    5    3
 0.02761967960219858    5    4    5    4
 0.7564584888804996    5    5    1    1
 0.7563589527222226    5    5    2    2
 0.002355304916423654    5    5    3    1
 0.7131897868171015    5    5    3    3
 0.5887267008679803    5    5    4    4
 0.6439660600723778    5    5    5    5
 2.978866136507836e-14    6    1    1    1
 -0.1647585323805026    6    1    2    1
 -9.357471123915689e-15    6    1    2    2
 -3.108037263359754e-15    6    1    3    1
 0.02623322680239276    6    1    3    2
 1.475029950612217e-15    6    1    3    3
 0.02680150127842406    6    1    6    1
 -0.1779951290346509    6    2    1    1
 -9.843854382888054e-15    6    2    2    1
 -0.1784807953737607    6    2    2    2
 0.02532822844923878    6    2    3    1
 3.016850143181329e-15    6    2    3    2
 -0.0299126499816091    6    2    3    3
 -0.01105463550977262    6    2    4    4
 -0.01105463550977263    6    2    5    5
 0.02747549509294853    6    2    6    2
 -1.626403547429212e-14    6    3    1    1
 0.1288021129770971    6    3    2    1
 1.434260899608152e-14    6    3    2    2
 -0.01042829595411599    6    3    3    2
 -1.35828848168984e-15    6    3    3    3
 -0.002916338099498369    6    3    6    1
 0.03365323584396879    6    3    6    3
 1.045986944919961e-15    6    4    3    3
 0.01043602770939677    6    4    4    2
 0.03725928823212736    6    4    6    4
 -1.703148642588898e-15    6    5    3    3
 0.01043602770939679    6    5    5    2
 0.03725928823212739    6    5    6    5
 0.679516157305424    6    6    1    1
 4.589454901185452e-15    6    6    2    1
 0.6798294736323685    6    6    2    2
 -0.01544747878149235    6    6    3    1
 -1.251087991885336e-15    6    6    3    2
 0.5459347994299063    6    6    3    3
 0.5179816220633157    6    6    4    4
 0.517981622063316    6    6    5    5
 -0.001745984105677989    6    6    6    2
 1.278491201794907e-15    6    6    6    3
 0.5503193445868828    6    6    6    6
 0.06770373682845365    7    1    1    1
 -3.944923814697132e-15    7    1    2    1
 0.06768233298178786    7    1    2    2
 0.00113351640590531    7    1    3    1
 0.04059490514242826    7    1    3    3
 0.01392963636830099    7    1    4    4
 0.01392963636830102    7    1    5    5
 1.927414154114741e-15    7    1    6    1
 -0.01554224974344411    7    1    6    2
 -0.007061987270884439    7    1    6    6
 0.01827843596325349    7    1    7    1
 -2.564759860111503e-15    7    2    1    1
 0.0414313826928558    7    2    2    1
 7.308500118573431e-15    7    2    2    2
 -0.0006195836995730285    7    2    3    2
 2.034789979739327e-15    7    2    3    3
 -0.01435922188464724    7    2    6    1
 -1.613768865174788e-15    7    2    6    2
 -0.002733562579440698    7    2    6    3
 0.01594747420752972    7    2    7    2
 0.129638178605209    7    3    1    1
 0.1292614531314521    7    3    2    2
 0.01119006639365401    7    3    3    1
 0.1567700243663243    7    3    3    3
 0.07082199498522865    7    3    4    4
 0.07082199498522877    7    3    5    5
 -0.00998415068661547    7    3    6    2
 0.01428883280161039    7    3    6    6
 0.01800758738912535    7    3    7    1
 0.06199125352106215    7    3    7    3
 1.543763333403688e-15    7    4    2    1
 -0.004519907378935669    7    4    4    1
 -0.01521054646280859    7    4    4    3
 0.0262700394088341    7    4    7    4
 -2.500162130284879e-15    7    5    2    1
 -0.00451990737893567    7    5    5    1
 -0.01521054646280857    7    5    5    3
 0.02627003940883409    7    5    7    5
 2.93943336468136e-14    7    6    1    1
 -0.2436973213475216    7    6    2    1
 -2.852979083447366e-14    7    6    2    2
 -1.313605799656281e-15    7    6    3    1
 0.02054582137857008    7    6    3    2
 -0.006075504210860083    7    6    6    1
 -0.07216561891568755    7    6    6    3
 -3.343028978641804e-15    7    6    6    6
 -1.360802475477291e-15    7    6    7    1
 0.01866333218278493    7    6    7    2
 -1.201991007958995e-15    7    6    7    4
 1.941767820902498e-15    7    6    7    5
 0.2158582815112273    7    6    7    6
 0.7205208605425965    7    7    1    1
 -5.317442449900844e-15    7    7    2    1
 0.7206161759563851    7    7    2    2
 -0.008826070365859355    7    7    3    1
 0.6032190917263708    7    7    3    3
 0.5369643438414099    7    7    4    4
 0.5369643438414102    7    7    5    5
 -0.00419211595269774    7    7    6    2
 -1.85268467234323e-15    7    7    6    3
 0.555311727934239    7    7    6    6
 -0.000244366107133364    7    7    7    1
 0.04184976401736926    7    7    7    3
 5.087876192404195e-15    7    7    7    6
 0.5753254910526039    7    7    7    7
 -1.360428960693335e-15    8    1    4    1
 0.01092017418753138    8    1    4    2
 0.001995750636816839    8    1    5    2
 0.008838808233884759    8    1    6    4
 0.001615364082893364    8    1    6    5
 0.009319746306677649    8    1    8    1
 0.01173454871871226    8    2    4    1
 1.338790728361505e-15    8    2    4    2
 0.01598629131819636    8    2    4    3
 0.002144584204972502    8    2    5    1
 0.002921624740661967    8    2    5    3
 -0.004357327241492186    8    2    7    4
 -0.0007963369876422488    8    2    7    5
 0.009809019563630957    8    2    8    2
 0.008763452577722102    8    3    4    2
 0.001601592223929232    8    3    5    2
 0.02569964419714592    8    3    6    4
 0.004696818969333171    8    3    6    5
 0.007306455709746969    8    3    8    1
 0.02236825799449632    8    3    8    3
 -2.369376104651351e-14    8    4    1    1
 0.1965741530247902    8    4    2    1
 2.304517785034918e-14    8    4    2    2
 -0.01103763877351797    8    4    3    2
 -0.0001734537525520911    8    4    6    1
 0.05561075172944804    8    4    6    3
 2.008331963403999e-15    8    4    6    6
 -0.005904136784577138    8    4    7    2
 1.005946347237028e-15    8    4    7    4
 -1.184775334781944e-15    8    4    7    5
 -0.1214574000666608    8    4    7    6
 -2.932311378114132e-15    8    4    7    7
 0.1075602603970892    8    4    8    4
 -4.235922145749331e-15    8    5    1    1
 0.03592552502769559    8    5    2    1
 4.306513796728591e-15    8    5    2    2
 -0.002017218245140682    8    5    3    2
 -3.170008382369589e-05    8    5    6    1
 0.01016331711124452    8    5    6    3
 -0.00107902901046464    8    5    7    2
 -0.02219732756698369    8    5    7    6
 0.01749654867954873    8    5    8    4
 0.01502180861693199    8    5    8    5
 0.01369982439469307    8    6    4    1
 0.06019802024894849    8    6    4    3
 0.002503754316593761    8    6    5    1
 0.01100167773735027    8    6    5    3
 -0.03565189700124846    8    6    7    4
 -0.006515674102086289    8    6    7    5
 0.01142405050652331    8    6    8    2
 0.06810672589093961    8    6    8    6
 -0.006400491293532738    8    7    4    2
 -0.001169741833385189    8    7    5    2
 -0.03340646009009584    8    7    6    4
 -0.006105302246435716    8    7    6    5
 -0.005919314764564618    8    7    8    1
 -0.01963329015662842    8    7    8    3
 0.03843294882988735    8    7    8    7
 0.588948832006764    8    8    1    1
 0.5890316552491243    8    8    2    2
 -0.003979011814881328    8    8    3    1
 0.5251003239518048    8    8    3    3
 0.5066659486768177    8    8    4    4
 0.006098669714456475    8    8    5    4
 0.4744103613818216    8    8    5    5
 -0.003634151541540995    8    8    6    2
 0.4693286939775831    8    8    6    6
 0.001873010777621448    8    8    7    1
 0.02353788056224326    8    8    7    3
 0.473667603234854    8    8    7    7
 0.4528277664364053    8    8    8    8
 -0.001995750636816795    9    1    4    2
 -1.345817588861632e-15    9    1    5    1
 0.01092017418753145    9    1    5    2
 -0.00161536408289333    9    1    6    4
 0.008838808233884814    9    1    6    5
 0.009319746306677743    9    1    9    1
 -0.002144584204972455    9    2    4    1
 -0.002921624740661908    9    2    4    3
 0.01173454871871234    9    2    5    1
 1.352364235172232e-15    9    2    5    2
 0.01598629131819647    9    2    5    3
 0.0007963369876422319    9    2    7    4
 -0.004357327241492212    9    2    7    5
 0.009809019563631052    9    2    9    2
 -0.001601592223929209    9    3    4    2
 0.008763452577722148    9    3    5    2
 -0.004696818969333118    9    3    6    4
 0.02569964419714604    9    3    6    5
 0.007306455709747033    9    3    9    1
 0.02236825799449646    9    3    9    3
 4.870764545340989e-15    9    4    1    1
 -0.03592552502769508    9    4    2    1
 -3.666753025443066e-15    9    4    2    2
 0.00201721824514065    9    4    3    2
 3.170008382368989e-05    9    4    6    1
 -0.0101633171112444    9    4    6    3
 0.001079029010464627    9    4    7    2
 0.02219732756698348    9    4    7    6
 -0.01749654867954856    9    4    8    4
 0.008626535506879262    9    4    8    5
 0.01502180861693199    9    4    9    4
 -2.306980311164245e-14    9    5    1    1
 0.1965741530247911    9    5    2    1
 2.366692058593162e-14    9    5    2    2
 -0.01103763877351802    9    5    3    2
 1.22035024148989e-15    9    5    5    3
 -0.0001734537525520994    9    5    6    1
 0.05561075172944829    9    5    6    3
 2.26331617597164e-15    9    5    6    6
 -0.00590413678457717    9    5    7    2
 -1.62354663482753e-15    9    5    7    5
 -0.1214574000666613    9    5    7    6
 -2.635934139336922e-15    9    5    7    7
 0.08391191627327835    9    5    8    4
 0.01749654867954884    9    5    8    5
 -0.01749654867954863    9    5    9    4
 0.10756026039709    9    5    9    5
 -2.191046634633292e-15    9    6    2    1
 -0.002503754316593726    9    6    4    1
 -0.01100167773735017    9    6    4    3
 0.01369982439469314    9    6    5    1
 0.06019802024894874    9    6    5    3
 -1.318073149457466e-15    9    6    6    3
 0.00651567410208624    9    6    7    4
 -0.03565189700124859    9    6    7    5
 1.763790759294074e-15    9    6    7    6
 0.01142405050652341    9    6    9    2
 0.06810672589094005    9    6    9    6
 0.001169741833385169    9    7    4    2
 -0.006400491293532773    9    7    5    2
 0.006105302246435659    9    7    6    4
 -0.03340646009009599    9    7    6    5
 -0.005919314764564675    9    7    9    1
 -0.01963329015662854    9    7    9    3
 0.0384329488298876    9    7    9    7
 -0.006098669714455963    9    8    4    4
 0.01612779364749824    9    8    5    4
 0.006098669714456929    9    8    5    5
 0.01740499106443135    9    8    9    8
 0.5889488320067668    9    9    1    1
 0.5890316552491274    9    9    2    2
 -0.003979011814881343    9    9    3    1
 0.5251003239518073    9    9    3    3
 0.4744103613818234    9    9    4    4
 -0.006098669714456526    9    9    5    4
 0.5066659486768202    9    9    5    5
 -0.003634151541541008    9    9    6    2
 0.4693286939775853    9    9    6    6
 0.001873010777621454    9    9    7    1
 0.02353788056224341    9    9    7    3
 0.4736676032348562    9    9    7    7
 0.4180177843075444    9    9    8    8
 0.4528277664364091    9    9    9    9
 2.020093280478107e-14   10    1    1    1
 -0.09742939617027697   10    1    2    1
 -2.963288861794651e-15   10    1    2    2
 -1.579534784531864e-15   10    1    3    1
 0.01694809254177803   10    1    3    2
 3.29265000003796e-15   10    1    3    3
 1.026048278458813e-15   10    1    4    4
 1.025723653081778e-15   10    1    5    5
 0.01470202295965018   10    1    6    1
 -0.002186267836737423   10    1    6    3
 2.261991533005479e-15   10    1    7    1
 -0.006295520086823734   10    1    7    2
 1.516382099097172e-15   10    1    7    3
 -0.0006475540956362276   10    1    7    6
 -0.0007463608378095757   10    1    8    4
 -0.0001364035125972977   10    1    8    5
 0.0001364035125972927   10    1    9    4
 -0.0007463608378095825   10    1    9    5
 0.008381407245229075   10    1   10    1
 -0.1017433614457336   10    2    1    1
 -5.076536115306354e-15   10    2    2    1
 -0.1020600941465739   10    2    2    2
 0.01664844067803929   10    2    3    1
 2.317357629844519e-15   10    2    3    2
 -0.01187969768274741   10    2    3    3
 -0.004203408565461895   10    2    4    4
 -0.004203408565461901   10    2    5    5
 0.01495624117230871   10    2    6    2
 -0.002318247088354906   10    2    6    6
 -0.006697274364512891   10    2    7    1
 -0.003291942378463417   10    2    7    3
 1.321100347173587e-15   10    2    7    6
 -0.002777603739889323   10    2    7    7
 -0.001746797962180265   10    2    8    8
 -0.001746797962180279   10    2    9    9
 0.008483396848301681   10    2   10    2
 -1.447545425539709e-15   10    3    1    1
 0.07953815717204617   10    3    2    1
 1.74315365608765e-14   10    3    2    2
 -0.005700419259199027   10    3    3    2
 7.862200473995884e-15   10    3    3    3
 2.455121609484801e-15   10    3    4    4
 2.43381703679546e-15   10    3    5    5
 -0.003182826611669744   10    3    6    1
 0.01679588472836092   10    3    6    3
 1.495643344416597e-15   10    3    6    6
 1.038890568488609e-15   10    3    7    1
 0.0003226195321294232   10    3    7    2
 3.751537722509503e-15   10    3    7    3
 -0.02820047037666122   10    3    7    6
 2.177786928927745e-15   10    3    7    7
 0.02769436653286821   10    3    8    4
 0.005061370697485637   10    3    8    5
 -0.005061370697485579   10    3    9    4
 0.02769436653286833   10    3    9    5
 -0.001829929512597324   10    3   10    1
 0.01030728353561101   10    3   10    3
 0.005803917200150695   10    4    4    2
 -2.436548221570931e-15   10    4    4    3
 0.01624371265360825   10    4    6    4
 1.546993869810942e-15   10    4    7    4
 0.004818824850253383   10    4    8    1
 0.01268239711533359   10    4    8    3
 -1.90244066595944e-15   10    4    8    6
 -0.01101802808254665   10    4    8    7
 -0.0008806794285921415   10    4    9    1
 -0.00231781120746137   10    4    9    3
 0.002013634231889373   10    4    9    7
 0.009253871041856021   10    4   10    4
 1.482983370731338e-15   10    5    1    1
 1.483812305450388e-15   10    5    2    2
 0.005803917200150702   10    5    5    2
 -2.443987857872568e-15   10    5    5    3
 1.192961994477029e-15   10    5    5    5
 0.01624371265360827   10    5    6    5
 1.544202049216792e-15   10    5    7    5
 0.0008806794285921601   10    5    8    1
 0.002317811207461397   10    5    8    3
 -0.002013634231889404   10    5    8    7
 0.004818824850253411   10    5    9    1
 0.01268239711533364   10    5    9    3
 -1.886368200295146e-15   10    5    9    6
 -0.01101802808254672   10    5    9    7
 0.009253871041856038   10    5   10    5
 0.1535826364630826   10    6    1    1
 -7.477816922531882e-15   10    6    2    1
 0.1536947341486754   10    6    2    2
 -0.005710634966068971   10    6    3    1
 0.1046782423441215   10    6    3    3
 0.08921578073295186   10    6    4    4
 0.08921578073295194   10    6    5    5
 -0.00282740789911257   10    6    6    2
 -1.184274033005916e-15   10    6    6    3
 0.07070753230585733   10    6    6    6
 -0.0001888355687822368   10    6    7    1
 0.01222725852349865   10    6    7    3
 1.521488013703221e-15   10    6    7    6
 0.07296956504626614   10    6    7    7
 -1.870031907102998e-15   10    6    8    4
 0.05888679569048959   10    6    8    8
 -1.797580096926654e-15   10    6    9    5
 0.05888679569048998   10    6    9    9
 -0.001708637151192748   10    6   10    2
 0.03695041231411146   10    6   10    6
 2.936325600797884e-14   10    7    1    1
 -0.05444981751609972   10    7    2    1
 1.641768555685815e-14   10    7    2    2
 0.005638274122859064   10    7    3    2
 1.755198634004196e-14   10    7    3    3
 1.241877694430071e-14   10    7    4    4
 1.241818402123764e-14   10    7    5    5
 -0.0005356997894520405   10    7    6    1
 -0.008199561300658999   10    7    6    3
 8.29575344101505e-15   10    7    6    6
 0.003901910435471178   10    7    7    2
 3.95630793750823e-15   10    7    7    3
 0.01438982783201148   10    7    7    6
 9.768634469040083e-15   10    7    7    7
 -0.01336970064584575   10    7    8    4
 -0.002443421516889657   10    7    8    5
 7.550608392920075e-15   10    7    8    8
 0.002443421516889599   10    7    9    4
 -0.01336970064584584   10    7    9    5
 7.549655269096177e-15   10    7    9    9
 0.000219329503517281   10    7   10    1
 -0.007789637719806748   10    7   10    3
 6.540666445953303e-15   10    7   10    6
 0.02277656792259527   10    7   10    7
 0.005959672498513095   10    8    4    1
 0.02279083728523709   10    8    4    3
 0.001089178613808914   10    8    5    1
 0.004165210851447339   10    8    5    3
 -0.006709262337132918   10    8    7    4
 -0.001226172252562883   10    8    7    5
 0.004867482098510464   10    8    8    2
 0.01333105213672801   10    8    8    6
 0.01371618825956834   10    8   10    8
 -0.001089178613808892   10    9    4    1
 -0.004165210851447258   10    9    4    3
 0.005959672498513133   10    9    5    1
 0.02279083728523722   10    9    5    3
 0.001226172252562836   10    9    7    4
 -0.006709262337132987   10    9    7    5
 0.004867482098510512   10    9    9    2
 0.01333105213672819   10    9    9    6
 0.01371618825956843   10    9   10    9
 0.3826998590107185   10   10    1    1
 -1.766936477774067e-14   10   10    2    1
 0.3827890308729828   10   10    2    2
 -0.004360404533296258   10   10    3    1
 0.3432992636508123   10   10    3    3
 0.3335348307818397   10   10    4    4
 0.3335348307818399   10   10    5    5
 -1.579079477852935e-15   10   10    6    1
 -0.0007428987224241986   10   10    6    2
 -9.000829595540161e-15   10   10    6    3
 0.3599037718661058   10   10    6    6
 -0.001714772652241098   10   10    7    1
 2.67948369655352e-15   10   10    7    2
 0.002498231468699662   10   10    7    3
 2.459320182397751e-14   10   10    7    6
 0.3615405697673181   10   10    7    7
 -1.889287337686341e-14   10   10    8    4
 -3.420224173322772e-15   10   10    8    5
 0.3265787851952092   10   10    8    8
 3.433017758958101e-15   10   10    9    4
 -1.872525572099715e-14   10   10    9    5
 0.3265787851952103   10   10    9    9
 -1.577289189015618e-14   10   10   10    1
 -0.0008209468060812537   10   10   10    2
 8.224323999606042e-15   10   10   10    3
 -0.00154629849500067   10   10   10    6
 -3.794273922830271e-15   10   10   10    7
 0.3505220533068026   10   10   10   10
 -0.007798285944883403   11    1    1    1
 1.219396381218758e-14   11    1    2    1
 -0.007978604606811891   11    1    2    2
 0.009579381703311138   11    1    3    1
 -1.838020837960364e-15   11    1    3    2
 0.02063371638924764   11    1    3    3
 0.006208869200459369   11    1    4    4
 0.006208869200459381   11    1    5    5
 -1.369057235064758e-15   11    1    6    1
 -0.003334058811369638   11    1    6    2
 -0.005783307119475741   11    1    6    6
 0.00965457154042856   11    1    7    1
 0.01045842988759868   11    1    7    3
 -0.001251681723559911   11    1    7    7
 -6.636708378004106e-05   11    1    8    8
 -6.636708378004971e-05   11    1    9    9
 -0.0003847756862880067   11    1   10    2
 -0.001253492054306819   11    1   10    6
 -0.001396472384681171   11    1   10   10
 0.006852796588479861   11    1   11    1
 1.354776640738876e-14   11    2    1    1
 -0.02332314776699338   11    2    2    1
 8.041238675089973e-15   11    2    2    2
 -1.812326517021878e-15   11    2    3    1
 0.008564833953548694   11    2    3    2
 2.396113906247277e-15   11    2    3    3
 -0.002610977521167028   11    2    6    1
 -2.089111049679692e-15   11    2    6    2
 -0.002998449085097909   11    2    6    3
 0.008230717550717862   11    2    7    2
 0.01164432282317718   11    2    7    6
 -0.004642563071733708   11    2    8    4
 -0.0008484661551877123   11    2    8    5
 0.0008484661551877004   11    2    9    4
 -0.004642563071733731   11    2    9    5
 -0.000139086870483829   11    2   10    1
 -0.0008441718252003526   11    2   10    3
 0.00286593743993757   11    2   10    7
 0.005988217470117663   11    2   11    2
 0.1092217932390342   11    3    1    1
 -9.14603814775386e-15   11    3    2    1
 0.1090359024337927   11    3    2    2
 0.00391944569164109   11    3    3    1
 0.09329772903133882   11    3    3    3
 0.03622209545579279   11    3    4    4
 0.03622209545579284   11    3    5    5
 -0.007814543893377716   11    3    6    2
 -2.320856722949627e-15   11    3    6    3
 0.02200258582543093   11    3    6    6
 0.01128395626665696   11    3    7    1
 0.03914276973377662   11    3    7    3
 3.072466326498047e-15   11    3    7    6
 0.04128665706198221   11    3    7    7
 -3.21135262479344e-15   11    3    8    4
 0.01752174827118393   11    3    8    8
 -3.167001979675205e-15   11    3    9    5
 0.01752174827118408   11    3    9    9
 1.251128649466804e-15   11    3   10    1
 -0.003107090561191884   11    3   10    2
 1.709732615901016e-15   11    3   10    3
 0.005621559341740474   11    3   10    6
 3.023406178193078e-15   11    3   10    7
 0.01174368055898918   11    3   10   10
 0.006247203523941708   11    3   11    1
 0.0330062931217117   11    3   11    3
 -0.002505313423560908   11    4    4    1
 -0.02321988754026461   11    4    4    3
 -1.917032071280245e-15   11    4    6    4
 0.01298376415421405   11    4    7    4
 -0.002143049975644551   11    4    8    2
 -1.405873961696441e-15   11    4    8    3
 -0.01870204077288017   11    4    8    6
 1.020762928559166e-15   11    4    8    7
 0.0003916598105647706   11    4    9    2
 0.003417950038275642   11    4    9    6
 -0.007978813045930446   11    4   10    8
 0.001458192968720186   11    4   10    9
 0.01770991388832823   11    4   11    4
 -0.002505313423560909   11    5    5    1
 -0.02321988754026462   11    5    5    3
 -1.904699271568222e-15   11    5    6    5
 0.01298376415421405   11    5    7    5
 -0.0003916598105647773   11    5    8    2
 -0.003417950038275659   11    5    8    6
 -0.002143049975644564   11    5    9    2
 -1.419556899800784e-15   11    5    9    3
 -0.01870204077288024   11    5    9    6
 1.022361855381143e-15   11    5    9    7
 -0.001458192968720207   11    5   10    8
 -0.007978813045930526   11    5   10    9
 0.01770991388832823   11    5   11    5
 -1.484213312419758e-14   11    6    1    1
 -0.02697158279372846   11    6    2    1
 -2.126540757992502e-14   11    6    2    2
 0.002545571120485329   11    6    3    2
 -1.249765265234903e-14   11    6    3    3
 -1.03124431737045e-14   11    6    4    4
 -1.032022655945682e-14   11    6    5    5
 0.0006214956219706023   11    6    6    1
 0.0002956411323979791   11    6    6    3
 -7.470410466441091e-15   11    6    6    6
 0.0007824682861514041   11    6    7    2
 -1.704365815147213e-15   11    6    7    3
 -0.01382614735366266   11    6    7    6
 -8.493910869794563e-15   11    6    7    7
 -0.0001013845154579099   11    6    8    4
 -1.852884466986886e-05   11    6    8    5
 -6.394604084528771e-15   11    6    8    8
 1.852884466984012e-05   11    6    9    4
 -0.0001013845154579432   11    6    9    5
 -6.406892838527536e-15   11    6    9    9
 0.0003899992287750074   11    6   10    1
 -0.004566672603194787   11    6   10    3
 -2.315855840429037e-15   11    6   10    6
 0.0181363335802334   11    6   10    7
 -4.439970526654013e-15   11    6   10   10
 0.0009801618890342902   11    6   11    2
 0.01870011929779567   11    6   11    6
 0.1570080530326367   11    7    1    1
 5.37527108327579e-15   11    7    2    1
 0.156925077929383   11    7    2    2
 0.0006022298565251166   11    7    3    1
 0.131843382474145   11    7    3    3
 0.08754195220545392   11    7    4    4
 0.08754195220545403   11    7    5    5
 -0.006254733102804856   11    7    6    2
 0.04436577756796278   11    7    6    6
 0.007486261370248843   11    7    7    1
 0.03434366309515835   11    7    7    3
 -1.823085953034376e-15   11    7    7    6
 0.05763614306682203   11    7    7    7
 1.42409955355971e-15   11    7    8    4
 0.0459611142019496   11    7    8    8
 1.505333401333186e-15   11    7    9    5
 0.04596111420194993   11    7    9    9
 -0.002587378767262568   11    7   10    2
 2.20645984122525e-15   11    7   10    3
 0.03272459486152893   11    7   10    6
 3.213846289790157e-15   11    7   10    7
 -0.009206391601601195   11    7   10   10
 0.003471714349035895   11    7   11    1
 0.01761424317056211   11    7   11    3
 -5.392604765508402e-15   11    7   11    6
 0.04164700369478055   11    7   11    7
 -0.000863922154580767   11    8    4    2
 -2.474714895429791e-15   11    8    4    3
 -0.0001578887992586602   11    8    5    2
 -0.003112687264397401   11    8    6    4
 -0.0005688689102803733   11    8    6    5
 -0.0008567027920848141   11    8    8    1
 -0.002307669875037129   11    8    8    3
 -1.346679977394459e-15   11    8    8    6
 -0.00052643394132818   11    8    8    7
 -0.004538612271333349   11    8   10    4
 -0.0008294683010753389   11    8   10    5
 1.250654311016342e-15   11    8   11    4
 0.008048054459006658   11    8   11    8
 0.0001578887992586567   11    9    4    2
 -0.0008639221545807738   11    9    5    2
 -2.480224558100525e-15   11    9    5    3
 0.0005688689102803529   11    9    6    4
 -0.003112687264397432   11    9    6    5
 -0.0008567027920848238   11    9    9    1
 -0.002307669875037149   11    9    9    3
 -1.34714906915376e-15   11    9    9    6
 -0.0005264339413281462   11    9    9    7
 0.0008294683010753145   11    9   10    4
 -0.004538612271333372   11    9   10    5
 1.257505113493734e-15   11    9   11    5
 0.008048054459006661   11    9   11    9
 1.535998026902866e-14   11   10    1    1
 -0.06637060791906566   11   10    2    1
 0.005041385798857727   11   10    3    2
 8.223239797433557e-15   11   10    3    3
 5.969834002139685e-15   11   10    4    4
 6.03628204278589e-15   11   10    5    5
 -0.003061332989069267   11   10    6    1
 -0.03070873962538327   11   10    6    3
 0.006309893008189172   11   10    7    2
 1.406101797496451e-15   11   10    7    3
 1.009909129609438e-15   11   10    7    5
 0.09823657956648713   11   10    7    6
 5.54829619747732e-15   11   10    7    7
 -0.0535139570454528   11   10    8    4
 -0.009780110831381672   11   10    8    5
 3.656363406490115e-15   11   10    8    8
 0.009780110831381637   11   10    9    4
 -0.05351395704545295   11   10    9    5
 3.736967061750834e-15   11   10    9    9
 -0.0007582778374366851   11   10   10    1
 -0.005901595595464637   11   10   10    3
 -0.02611907224361588   11   10   10    7
 1.142924730551664e-13   11   10   10   10
 0.003528133393327268   11   10   11    2
 1.481345428266945e-15   11   10   11    3
 -0.03234103085501928   11   10   11    6
 3.409382151597917e-15   11   10   11    7
 0.1045815158845947   11   10   11   10
 0.4663918693682252   11   11    1    1
 1.357480751071338e-14   11   11    2    1
 0.466318697693653   11   11    2    2
 0.0008340894504882852   11   11    3    1
 -1.027688134244698e-15   11   11    3    2
 0.4490263612894162   11   11    3    3
 0.4088941266960375   11   11    4    4
 0.4088941266960378   11   11    5    5
 -0.004611167467541537   11   11    6    2
 5.87594209400244e-15   11   11    6    3
 0.3911142466320682   11   11    6    6
 0.005743131823756883   11   11    7    1
 -1.002400812637368e-15   11   11    7    2
 0.02711656158282089   11   11    7    3
 -1.898706344059808e-14   11   11    7    6
 0.4024058253405171   11   11    7    7
 1.020884765612351e-14   11   11    8    4
 1.935517718321123e-15   11   11    8    5
 0.3671563824198446   11   11    8    8
 -1.769417945496343e-15   11   11    9    4
 1.039739041391874e-14   11   11    9    5
 0.3671563824198459   11   11    9    9
 -0.001962625522194929   11   11   10    2
 3.120767533282276e-15   11   11   10    3
 0.02164654029400929   11   11   10    6
 9.08387948195255e-15   11   11   10    7
 0.332103148488724   11   11   10   10
 0.00286364861652212   11   11   11    1
 0.0175498352685733   11   11   11    3
 3.878408011415146e-15   11   11   11    6
 0.02249451598085894   11   11   11    7