 &FCI NORB=  28,NELEC=14,MS2=0,
  ORBSYM=1,1,1,1,1,1,1,1,1,1,1,1,1,1,1,1,1,1,1,1,1,1,1,1,1,1,1,1,
  ISYM=1,
 &END
 2.380817973597848    1    1    1    1
 -4.181942335826361e-13    2    1    1    1
 1.72690059167671    2    1    2    1
 2.389443877688796    2    2    1    1
 4.130053504053377e-13    2    2    2    1
 2.398166920545598    2    2    2    2
 -0.2374717785794355    3    1    1    1
 3.284145958654117e-14    3    1    2    1
 -0.2398124160602032    3    1    2    2
 0.05982084522364394    3    1    3    1
 3.630898207963862e-14    3    2    1    1
 -0.2688525453929152    3    2    2    1
 -9.333018976794352e-14    3    2    2    2
 0.05845121350801588    3    2    3    2
 1.032111279812742    3    3    1    1
 -2.133818295668721e-15    3    3    2    1
 1.030864225112232    3    3    2    2
 0.01275844944684595    3    3    3    1
 1.41775697085067e-15    3    3    3    2
 0.9814441703091782    3    3    3    3
 3.324445554111258e-15    4    1    2    1
 0.01656836766149893    4    1    4    1
 3.661239786139879e-15    4    2    1    1
 3.680998643374486e-15    4    2    2    2
 0.0143251026473572    4    2    4    2
 -2.481066178816913e-15    4    3    2    1
 0.02646039812929292    4    3    4    1
 3.140622654542524e-15    4    3    4    2
 0.1313575192989138    4    3    4    3
 0.8041787010258078    4    4    1    1
 0.8038731423125561    4    4    2    2
 0.003749847258727564    4    4    3    1
 0.7588540982766208    4    4    3    3
 0.6887304242883652    4    4    4    4
 0.01656836766149886    5    1    5    1
 0.01432510264735714    5    2    5    2
 0.02646039812929284    5    3    5    1
 3.110004887194329e-15    5    3    5    2
 0.1313575192989135    5    3    5    3
 0.03062056363563632    5    4    5    4
 0.8041787010258054    5    5    1    1
 0.8038731423125535    5    5    2    2
 0.003749847258727581    5    5    3    1
 0.7588540982766182    5    5    3    3
 0.6274892970170907    5    5    4    4
 0.6887304242883612    5    5    5    5
 -6.142621947115984e-14    6    1    1    1
 0.1582106840544681    6    1    2    1
 1.461068475949213e-14    6    1    2    2
 6.272213011727327e-15    6    1    3    1
 -0.027895289243468    6    1    3    2
 -6.042862218236635e-15    6    1    3    3
 -2.15136881833583e-15    6    1    4    4
 -2.161492556121414e-15    6    1    5    5
 0.02578820941930529    6    1    6    1
 0.1754681552513979    6    2    1    1
 1.811594765258745e-14    6    2    2    1
 0.1764350164060029    6    2    2    2
 -0.02642500331710684    6    2    3    1
 -6.690215194988733e-15    6    2    3    2
 0.03460945441034379    6    2    3    3
 0.01262949391608719    6    2    4    4
 0.01262949391608716    6    2    5    5
 -1.155550298731576e-15    6    2    6    1
 0.02683943546009068    6    2    6    2
 2.146163292655184e-14    6    3    1    1
 -0.1161244922463913    6    3    2    1
 -3.437457905667608e-14    6    3    2    2
 -1.93700849630829e-15    6    3    3    1
 0.01207380802007999    6    3    3    2
 -6.556387377454342e-15    6    3    3    3
 -2.187054705669554e-15    6    3    4    3
 -3.224471471080514e-15    6    3    4    4
 -3.179314450596494e-15    6    3    5    5
 -0.002827325901837288    6    3    6    1
 0.02802524814542771    6    3    6    3
 -2.430363668899656e-15    6    4    1    1
 1.250197048687743e-15    6    4    2    1
 -2.409335478065179e-15    6    4    2    2
 -4.154719172602802e-15    6    4    3    3
 1.394398987180699e-15    6    4    4    1
 -0.01045105706554536    6    4    4    2
 -1.717020066143918e-15    6    4    4    4
 -1.970475510441216e-15    6    4    5    5
 0.03540445644711752    6    4    6    4
 1.405553123263116e-15    6    5    5    1
 -0.0104510570655453    6    5    5    2
 0.03540445644711723    6    5    6    5
 0.6879328022781134    6    6    1    1
 -1.802513216811463e-14    6    6    2    1
 0.688596946051366    6    6    2    2
 -0.01679018373050756    6    6    3    1
 0.5613901545138904    6    6    3    3
 0.5343146771410375    6    6    4    4
 0.5343146771410358    6    6    5    5
 0.001352354946835645    6    6    6    2
 4.244868345715247e-15    6    6    6    3
 0.5573244758097108    6    6    6    6
 -0.05993538981190353    7    1    1    1
 -2.905953201595007e-15    7    1    2    1
 -0.05966224694641253    7    1    2    2
 -0.005057717170387775    7    1    3    1
 -0.04570746227893494    7    1    3    3
 -0.01616214257083501    7    1    4    4
 -0.01616214257083496    7    1    5    5
 3.132087281589382e-15    7    1    6    1
 -0.01460846119419515    7    1    6    2
 1.385610376436475e-15    7    1    6    3
 0.007567731101778847    7    1    6    6
 0.01915029521534109    7    1    7    1
 -7.757351347652958e-15    7    2    1    1
 -0.02490661640534526    7    2    2    1
 -1.979097309347472e-14    7    2    2    2
 -0.002326313536583427    7    2    3    2
 -6.72373398277748e-15    7    2    3    3
 -2.392685116876792e-15    7    2    4    4
 -2.392102358209081e-15    7    2    5    5
 -0.01281044852037711    7    2    6    1
 -3.663359898634436e-15    7    2    6    2
 -0.003469375218469058    7    2    6    3
 1.35157574558285e-15    7    2    7    1
 0.01563916477759463    7    2    7    2
 -0.1518391769048292    7    3    1    1
 4.670810721703333e-15    7    3    2    1
 -0.1509668966062283    7    3    2    2
 -0.01211773555053989    7    3    3    1
 -1.866494697515264e-15    7    3    3    2
 -0.1624545505330344    7    3    3    3
 -0.07712143285083162    7    3    4    4
 -0.07712143285083138    7    3    5    5
 2.342886355841817e-15    7    3    6    1
 -0.011571093652142    7    3    6    2
 1.666852419979215e-15    7    3    6    3
 1.236019797976367e-15    7    3    6    4
 -0.01884211902309913    7    3    6    6
 0.01988454063979535    7    3    7    1
 2.883489887833823e-15    7    3    7    2
 0.06215406814250964    7    3    7    3
 -4.923831285448926e-15    7    4    2    1
 0.004487769037750523    7    4    4    1
 0.01656241774130338    7    4    4    3
 1.017721713901665e-15    7    4    6    3
 0.02744004772196456    7    4    7    4
 0.004487769037750503    7    5    5    1
 0.01656241774130334    7    5    5    3
 0.02744004772196447    7    5    7    5
 5.889738566647318e-14    7    6    1    1
 -0.2317630510501737    7    6    2    1
 -5.269440753966764e-14    7    6    2    2
 -2.581458267633674e-15    7    6    3    1
 0.0235859473780504    7    6    3    2
 3.720114494232263e-15    7    6    3    3
 1.0166730170797e-15    7    6    4    3
 1.356879018865609e-15    7    6    4    4
 1.419003803349028e-15    7    6    5    5
 0.007182373120337265    7    6    6    1
 0.06444095448300863    7    6    6    3
 1.698543649480965e-14    7    6    6    6
 1.964723414342451e-15    7    6    7    1
 -0.02067242794052485    7    6    7    2
 -3.44581134459343e-15    7    6    7    3
 3.962394124737659e-15    7    6    7    4
 0.2143447893026993    7    6    7    6
 0.7419447486881589    7    7    1    1
 1.646697101592709e-14    7    7    2    1
 0.7420727999871917    7    7    2    2
 -0.008851368565319416    7    7    3    1
 -2.823506402641063e-15    7    7    3    2
 0.6268591772631449    7    7    3    3
 0.5603170611793145    7    7    4    4
 0.5603170611793129    7    7    5    5
 -1.136460717199306e-15    7    7    6    1
 0.004820003107453874    7    7    6    2
 -6.729426044183029e-15    7    7    6    3
 0.5641675288875675    7    7    6    6
 -0.000981822675704202    7    7    7    1
 1.238579009320284e-15    7    7    7    2
 -0.04802977950143735    7    7    7    3
 -1.473170543886404e-14    7    7    7    6
 0.5866418392369862    7    7    7    7
 2.601108464489961e-15    8    1    4    1
 -0.01028328594336999    8    1    4    2
 1.914900437535197e-15    8    1    4    3
 -0.001921072386690677    8    1    5    2
 0.007803586923580213    8    1    6    4
 0.001457827336377398    8    1    6    5
 0.007679200158617278    8    1    8    1
 -0.01136198104869801    8    2    4    1
 -2.617284314685027e-15    8    2    4    2
 -0.01589744916186485    8    2    4    3
 -0.002122588846693435    8    2    5    1
 -0.002969882464794032    8    2    5    3
 -0.003982539019104062    8    2    7    4
 -0.0007439981520159678    8    2    7    5
 0.008195902740377908    8    2    8    2
 1.027183412027633e-15    8    3    4    1
 -0.008039058341080041    8    3    4    2
 -0.001501816936637976    8    3    5    2
 0.02230404607055369    8    3    6    4
 0.004166731067635272    8    3    6    5
 0.005862139970679936    8    3    8    1
 0.01790666390944553    8    3    8    3
 4.147188480754039e-14    8    4    1    1
 -0.1729776920736401    8    4    2    1
 -4.176357634112252e-14    8    4    2    2
 -1.481970748611862e-15    8    4    3    1
 0.01258649583916746    8    4    3    2
 2.250332427099082e-15    8    4    4    3
 0.0005753953524291125    8    4    6    1
 0.04616984554706911    8    4    6    3
 8.33745234194786e-15    8    4    6    6
 -0.007251720797837584    8    4    7    2
 -1.622990434643626e-15    8    4    7    3
 3.141001800502423e-15    8    4    7    4
 0.1114633776917886    8    4    7    6
 -8.446528996996915e-15    8    4    7    7
 0.09056018582872905    8    4    8    4
 8.430397687965508e-15    8    5    1    1
 -0.032314832981028    8    5    2    1
 -7.127217442764856e-15    8    5    2    2
 0.002351346615758678    8    5    3    2
 0.0001074925008474052    8    5    6    1
 0.008625221146887728    8    5    6    3
 1.808653330287306e-15    8    5    6    6
 -0.001354730448752937    8    5    7    2
 0.0208230344065291    8    5    7    6
 -1.241613301557291e-15    8    5    7    7
 0.01498591007036994    8    5    8    4
 0.01314187608756692    8    5    8    5
 3.660422081414872e-15    8    6    2    1
 0.01368822176722729    8    6    4    1
 1.423080352183085e-15    8    6    4    2
 0.05889135862281185    8    6    4    3
 0.002557165579633855    8    6    5    1
 0.01100179101194036    8    6    5    3
 -2.219420353225678e-15    8    6    6    3
 2.420698190508386e-15    8    6    6    4
 0.03566154880645304    8    6    7    4
 0.006662113361037916    8    6    7    5
 -3.128051654415027e-15    8    6    7    6
 1.345776034407105e-15    8    6    8    1
 -0.009840676860390501    8    6    8    2
 0.06498107676865773    8    6    8    6
 -0.00627634673688271    8    7    4    2
 -2.140720503154849e-15    8    7    4    3
 1.407105087257506e-15    8    7    4    4
 -0.001172515912901893    8    7    5    2
 0.03215238262617397    8    7    6    4
 0.00600654837078407    8    7    6    5
 -1.356249276816204e-15    8    7    6    6
 -2.590809511371361e-15    8    7    7    4
 0.005141668312207047    8    7    8    1
 0.01782155958342043    8    7    8    3
 -1.079027553426391e-15    8    7    8    6
 0.03796611664428277    8    7    8    7
 0.5620155653729174    8    8    1    1
 0.5621573410128046    8    8    2    2
 -0.003720839788272738    8    8    3    1
 0.5103656108836762    8    8    3    3
 0.4980413574043217    8    8    4    4
 0.00588993343135463    8    8    5    4
 0.4676135296246102    8    8    5    5
 0.00286382912445528    8    8    6    2
 0.4586064142714482    8    8    6    6
 -0.00125835049426562    8    8    7    1
 -0.02095931195983565    8    8    7    3
 0.4643686990780249    8    8    7    7
 0.4320435024416392    8    8    8    8
 -0.001921072386690708    9    1    4    2
 -2.661053227141279e-15    9    1    5    1
 0.01028328594336997    9    1    5    2
 -1.987305811566006e-15    9    1    5    3
 0.001457827336377458    9    1    6    4
 -0.007803586923580195    9    1    6    5
 0.007679200158617286    9    1    9    1
 -0.00212258884669347    9    2    4    1
 -0.002969882464794064    9    2    4    3
 0.01136198104869799    9    2    5    1
 2.559393964876361e-15    9    2    5    2
 0.01589744916186483    9    2    5    3
 -0.0007439981520159679    9    2    7    4
 0.00398253901910406    9    2    7    5
 0.00819590274037792    9    2    9    2
 -0.001501816936637991    9    3    4    2
 -1.073864872977714e-15    9    3    5    1
 0.008039058341080027    9    3    5    2
 0.004166731067635441    9    3    6    4
 -0.02230404607055362    9    3    6    5
 0.005862139970679942    9    3    9    1
 0.01790666390944555    9    3    9    3
 6.356676600594652e-15    9    4    1    1
 -0.03231483298102818    9    4    2    1
 -9.199154574247493e-15    9    4    2    2
 0.002351346615758696    9    4    3    2
 -1.147185114481585e-15    9    4    3    3
 -1.003343560307662e-15    9    4    4    4
 -1.27268425583606e-15    9    4    5    3
 0.0001074925008473889    9    4    6    1
 0.00862522114688782    9    4    6    3
 -0.001354730448752926    9    4    7    2
 0.02082303440652912    9    4    7    6
 -2.249126364624402e-15    9    4    7    7
 0.01498591007036991    9    4    8    4
 -0.00754268956602925    9    4    8    5
 0.01314187608756696    9    4    9    4
 -4.259704322676838e-14    9    5    1    1
 0.1729776920736398    9    5    2    1
 4.064320200013019e-14    9    5    2    2
 1.500235747026767e-15    9    5    3    1
 -0.01258649583916744    9    5    3    2
 -1.203281892272294e-15    9    5    3    3
 -0.0005753953524291167    9    5    6    1
 -0.04616984554706904    9    5    6    3
 -8.766758500857583e-15    9    5    6    6
 0.007251720797837586    9    5    7    2
 1.742068176890368e-15    9    5    7    3
 -2.365494754559272e-15    9    5    7    4
 -0.1114633776917885    9    5    7    6
 7.915972363347618e-15    9    5    7    7
 -0.06987562017513271    9    5    8    4
 -0.01498591007036992    9    5    8    5
 1.48960013598052e-15    9    5    8    6
 -0.01498591007036992    9    5    9    4
 0.09056018582872884    9    5    9    5
 0.002557165579633936    9    6    4    1
 0.01100179101194073    9    6    4    3
 -0.01368822176722726    9    6    5    1
 -1.387544373396134e-15    9    6    5    2
 -0.0588913586228117    9    6    5    3
 -2.452898995031205e-15    9    6    6    5
 0.006662113361038055    9    6    7    4
 -0.03566154880645295    9    6    7    5
 1.369499886365593e-15    9    6    9    1
 -0.009840676860390512    9    6    9    2
 1.117321915323026e-15    9    6    9    4
 0.06498107676865773    9    6    9    6
 -0.001172515912901881    9    7    4    2
 0.006276346736882705    9    7    5    2
 2.147624349677066e-15    9    7    5    3
 0.006006548370784191    9    7    6    4
 -0.03215238262617391    9    7    6    5
 2.557632924893305e-15    9    7    7    5
 0.005141668312207055    9    7    9    1
 0.01782155958342046    9    7    9    3
 -1.077609809841361e-15    9    7    9    6
 0.03796611664428282    9    7    9    7
 0.005889933431354538    9    8    4    4
 -0.01521391388985506    9    8    5    4
 -0.005889933431354784    9    8    5    5
 0.01693836471190929    9    8    9    8
 0.5620155653729175    9    9    1    1
 0.5621573410128047    9    9    2    2
 -0.003720839788272753    9    9    3    1
 0.5103656108836762    9    9    3    3
 0.4676135296246115    9    9    4    4
 -0.005889933431354686    9    9    5    4
 0.4980413574043203    9    9    5    5
 0.002863829124455268    9    9    6    2
 0.4586064142714482    9    9    6    6
 -0.001258350494265637    9    9    7    1
 -0.02095931195983573    9    9    7    3
 0.464368699078025    9    9    7    7
 0.3981667730178213    9    9    8    8
 0.4320435024416392    9    9    9    9
 -3.319314088997757e-14   10    1    1    1
 0.08931969996816636   10    1    2    1
 9.630671436657197e-15   10    1    2    2
 6.92725863582727e-15   10    1    3    1
 -0.01670088011671037   10    1    3    2
 4.782768148539618e-15   10    1    3    3
 1.6625071409598e-15   10    1    4    4
 1.657894199529053e-15   10    1    5    5
 0.01389157156179467   10    1    6    1
 -0.001858385566575253   10    1    6    3
 -1.205805610525121e-15   10    1    6    6
 -1.897018800318994e-15   10    1    7    1
 -0.005932623444400991   10    1    7    2
 -2.569904738233125e-15   10    1    7    3
 0.002269614709743475   10    1    7    6
 -5.552036499383924e-05   10    1    8    4
 -1.037203873119745e-05   10    1    8    5
 -1.037203873120526e-05   10    1    9    4
 5.55203649938377e-05   10    1    9    5
 0.007592704573220087   10    1   10    1
 0.0965432032831367   10    2    1    1
 4.460550039140504e-15   10    2    2    1
 0.09713618265764278   10    2    2    2
 -0.01608058597012624   10    2    3    1
 -1.351113265593649e-15   10    2    3    2
 0.01574685762534827   10    2    3    3
 0.005466333673509201   10    2    4    4
 0.005466333673509181   10    2    5    5
 0.01437096888815303   10    2    6    2
 0.001459532078055049   10    2    6    6
 -0.006704667586641929   10    2    7    1
 -4.396737965026154e-15   10    2    7    2
 -0.004937431670791678   10    2    7    3
 3.660503703536294e-15   10    2    7    6
 0.002741223925605645   10    2    7    7
 1.398297447678686e-15   10    2    8    4
 0.001385024422613867   10    2    8    8
 -1.413096807333114e-15   10    2    9    5
 0.001385024422613868   10    2    9    9
 0.007814702125529118   10    2   10    2
 4.777019166520013e-14   10    3    1    1
 -0.06588797400429672   10    3    2    1
 1.594351143078751e-14   10    3    2    2
 0.006474322092993534   10    3    3    2
 2.60141300861827e-14   10    3    3    3
 9.927822453015267e-15   10    3    4    4
 9.949343866139104e-15   10    3    5    5
 -0.002574224975465778   10    3    6    1
 2.12390377502111e-15   10    3    6    2
 0.01311485694064139   10    3    6    3
 7.777307443890269e-15   10    3    6    6
 -3.313094834285837e-15   10    3    7    1
 -0.0006781734521259736   10    3    7    2
 -1.148214824001764e-14   10    3    7    3
 0.02405158247802838   10    3    7    6
 9.294783909555293e-15   10    3    7    7
 0.02125015263416808   10    3    8    4
 0.003969847932195535   10    3    8    5
 2.408371167825761e-15   10    3    8    8
 0.00396984793219554   10    3    9    4
 -0.02125015263416806   10    3    9    5
 2.429552239140925e-15   10    3    9    9
 -0.001463378858405225   10    3   10    1
 3.978984491813885e-15   10    3   10    2
 0.007376908575695804   10    3   10    3
 3.678789196664824e-15   10    4    1    1
 3.684243561075136e-15   10    4    2    2
 2.583491334866676e-15   10    4    3    3
 -0.005602436389338025   10    4    4    2
 -7.52908334417234e-15   10    4    4    3
 2.884895365557326e-15   10    4    4    4
 2.184016417309598e-15   10    4    5    5
 0.01545585295433374   10    4    6    4
 1.065698069088815e-15   10    4    6    6
 -5.052761594542821e-15   10    4    7    4
 1.832571513483946e-15   10    4    7    7
 0.00411833323273304   10    4    8    1
 1.136823137359707e-15   10    4    8    2
 0.01054254050864944   10    4    8    3
 -5.504282430943916e-15   10    4    8    6
 0.01101497010926258   10    4    8    7
 1.25042157264404e-15   10    4    8    8
 0.0007693665523027686   10    4    9    1
 0.001969505036451152   10    4    9    3
 -1.063893808646546e-15   10    4    9    6
 0.002057761987137059   10    4    9    7
 1.249779954620665e-15   10    4    9    9
 0.00827408443596995   10    4   10    4
 -0.005602436389338003   10    5    5    2
 -7.512378655370808e-15   10    5    5    3
 0.01545585295433364   10    5    6    5
 -5.042027993035214e-15   10    5    7    5
 0.0007693665523027613   10    5    8    1
 0.001969505036451143   10    5    8    3
 -1.011077402407274e-15   10    5    8    6
 0.002057761987137077   10    5    8    7
 -0.004118333232733033   10    5    9    1
 -1.119599365775812e-15   10    5    9    2
 -0.01054254050864942   10    5    9    3
 5.474398319071716e-15   10    5    9    6
 -0.01101497010926257   10    5    9    7
 0.008274084435969914   10    5   10    5
 0.1598184064276812   10    6    1    1
 4.041228072668157e-15   10    6    2    1
 0.160073294255879   10    6    2    2
 -0.006630222315101891   10    6    3    1
 -1.093221379307868e-15   10    6    3    2
 0.1102693857204971   10    6    3    3
 0.09589661152591869   10    6    4    4
 0.09589661152591834   10    6    5    5
 0.002289852256634875   10    6    6    2
 0.07663189537399394   10    6    6    6
 0.001093164143872968   10    6    7    1
 -0.01244904405415138   10    6    7    3
 6.344242893616819e-15   10    6    7    6
 0.08098940104013122   10    6    7    7
 0.05516849050270703   10    6    8    8
 -1.049724543400465e-15   10    6    9    5
 0.05516849050270707   10    6    9    9
 0.001326805305892035   10    6   10    2
 3.806525407379358e-15   10    6   10    3
 0.03899297722298363   10    6   10    6
 -3.789848345087457e-14   10    7    1    1
 -0.06428729950774123   10    7    2    1
 -6.876941236518691e-14   10    7    2    2
 0.007249964757390622   10    7    3    2
 -4.387880033276947e-14   10    7    3    3
 -3.130633773051894e-14   10    7    4    4
 -3.126963748698031e-14   10    7    5    5
 0.001084506768678404   10    7    6    1
 -2.275542154337416e-15   10    7    6    2
 0.01036967273494992   10    7    6    3
 -1.432033202956873e-14   10    7    6    6
 2.77997568541577e-15   10    7    7    1
 -0.005151794893302718   10    7    7    2
 9.664388430155602e-15   10    7    7    3
 0.02483313254578176   10    7    7    6
 -2.258891858286649e-14   10    7    7    7
 0.01735614344491787   10    7    8    4
 0.003242388483126004   10    7    8    5
 -1.580345320285259e-14   10    7    8    8
 0.003242388483126009   10    7    9    4
 -0.01735614344491785   10    7    9    5
 -1.575821628333884e-14   10    7    9    9
 0.0002778098428418355   10    7   10    1
 0.00803023863399536   10    7   10    3
 -2.142151744616988e-14   10    7   10    6
 0.02375759180960383   10    7   10    7
 0.005434700982797573   10    8    4    1
 0.01942465153271979   10    8    4    3
 0.001015283834901482   10    8    5    1
 0.003628816886557179   10    8    5    3
 0.006234033603808319   10    8    7    4
 0.001164611183616802   10    8    7    5
 -0.003848119965196419   10    8    8    2
 0.008990899516994501   10    8    8    6
 -5.95512951017535e-15   10    8   10    4
 -1.080163519392996e-15   10    8   10    5
 0.01337338390914126   10    8   10    8
 0.001015283834901483   10    9    4    1
 0.003628816886557164   10    9    4    3
 -0.005434700982797571   10    9    5    1
 -0.01942465153271978   10    9    5    3
 0.001164611183616781   10    9    7    4
 -0.006234033603808328   10    9    7    5
 -0.003848119965196428   10    9    9    2
 0.008990899516994538   10    9    9    6
 -1.113963522120232e-15   10    9   10    4
 5.882772567689099e-15   10    9   10    5
 0.01337338390914129   10    9   10    9
 0.3823929948526992   10   10    1    1
 3.458469404957198e-14   10   10    2    1
 0.3825914753939717   10   10    2    2
 -0.004953707448302786   10   10    3    1
 -2.58698769871335e-15   10   10    3    2
 0.3443151418946928   10   10    3    3
 0.3361833490285321   10   10    4    4
 0.3361833490285311   10   10    5    5
 0.0002996222658333966   10   10    6    2
 -1.540846443492949e-14   10   10    6    3
 0.3619216728556539   10   10    6    6
 0.002350036920357702   10   10    7    1
 3.536911432136525e-15   10   10    7    2
 -0.003363760655662456   10   10    7    3
 -5.895040315270772e-14   10   10    7    6
 0.3622783542818789   10   10    7    7
 -4.295739111648267e-14   10   10    8    4
 -7.920747391310101e-15   10   10    8    5
 0.3235961208840135   10   10    8    8
 -8.242972276972793e-15   10   10    9    4
 4.2708024616811e-14   10   10    9    5
 0.3235961208840133   10   10    9    9
 -1.15973853784257e-14   10   10   10    1
 0.000439164159175791   10   10   10    2
 -1.028170604211454e-14   10   10   10    3
 -2.436545281391087e-06   10   10   10    6
 4.193347058478736e-14   10   10   10    7
 0.3517639110115009   10   10   10   10
 0.001864744110735328   11    1    1    1
 2.993463987024112e-14   11    1    2    1
 0.002288772057810388   11    1    2    2
 -0.009979309543703341   11    1    3    1
 -5.986622195154265e-15   11    1    3    2
 -0.02219630831290699   11    1    3    3
 -0.007093396891673991   11    1    4    4
 -0.007093396891673973   11    1    5    5
 6.50302176067848e-15   11    1    6    1
 -0.004053935305406128   11    1    6    2
 0.005326267815762832   11    1    6    6
 0.0102552296712806   11    1    7    1
 -2.137392774706134e-15   11    1    7    2
 0.0107220829513162   11    1    7    3
 2.266321353673606e-15   11    1    7    6
 0.0002868857755768184   11    1    7    7
 9.343122852128221e-05   11    1    8    8
 9.343122852128422e-05   11    1    9    9
 1.350359618028829e-15   11    1   10    1
 -0.001378357609180524   11    1   10    2
 -2.195489070492412e-15   11    1   10    3
 0.001457308772893323   11    1   10    6
 1.609000069681746e-15   11    1   10    7
 0.00150048135629782   11    1   10   10
 0.006476232652024937   11    1   11    1
 3.051283303036638e-14   11    2    1    1
 0.0214738412825664   11    2    2    1
 4.107803676476219e-14   11    2    2    2
 -5.711808708164711e-15   11    2    3    1
 -0.008512703897960879   11    2    3    2
 3.680114210331126e-15   11    2    3    3
 1.333439923149188e-15   11    2    4    4
 1.331861053735506e-15   11    2    5    5
 -0.003019222397895017   11    2    6    1
 4.903632973849228e-15   11    2    6    2
 -0.00297201095299412   11    2    6    3
 -2.504857690081679e-15   11    2    7    1
 0.008245712470339518   11    2    7    2
 -0.01177646876877388   11    2    7    6
 1.819250587849208e-15   11    2    7    7
 -0.004869929840518199   11    2    8    4
 -0.0009097760962071055   11    2    8    5
 -0.0009097760962071004   11    2    9    4
 0.004869929840518195   11    2    9    5
 -0.0009343408714489175   11    2   10    1
 1.116620452717531e-15   11    2   10    2
 -0.001102284009890648   11    2   10    3
 -0.003271251311126511   11    2   10    7
 4.588899247572054e-15   11    2   10   10
 -1.096372341871654e-15   11    2   11    1
 0.005332867216436573   11    2   11    2
 -0.1067981777237832   11    3    1    1
 -2.209852038772414e-14   11    3    2    1
 -0.1063657621687581   11    3    2    2
 -0.00439552956723969   11    3    3    1
 1.73288710854716e-15   11    3    3    2
 -0.08781415832703096   11    3    3    3
 -0.03535382936444614   11    3    4    4
 -0.03535382936444601   11    3    5    5
 -0.007898198935326924   11    3    6    2
 6.056868331535958e-15   11    3    6    3
 -0.01969366406638912   11    3    6    6
 0.01149808350334437   11    3    7    1
 1.36469882703466e-15   11    3    7    2
 0.037099952577398   11    3    7    3
 7.558447682846914e-15   11    3    7    6
 -0.03780407572940372   11    3    7    7
 7.248392966570372e-15   11    3    8    4
 1.273991762779092e-15   11    3    8    5
 -0.01292138831734195   11    3    8    8
 1.489612469832147e-15   11    3    9    4
 -7.153376198679173e-15   11    3    9    5
 -0.01292138831734196   11    3    9    9
 -1.896594860328893e-15   11    3   10    1
 -0.003598927491979298   11    3   10    2
 -6.307888239520665e-15   11    3   10    3
 -0.005111832733227351   11    3   10    6
 7.044847561213374e-15   11    3   10    7
 -0.01044383721117299   11    3   10   10
 0.006070526376337023   11    3   11    1
 -1.15857844151801e-15   11    3   11    2
 0.02786184963719197   11    3   11    3
 0.002638271228329323   11    4    4    1
 -1.663233368493253e-15   11    4    4    2
 0.02174260323006338   11    4    4    3
 5.611613604350474e-15   11    4    6    4
 0.01367802629486522   11    4    7    4
 1.685416741004408e-15   11    4    8    1
 -0.002022620884628055   11    4    8    2
 3.599828866166886e-15   11    4    8    3
 0.01742717621888867   11    4    8    6
 2.848996903653556e-15   11    4    8    7
 -0.0003778559841281122   11    4    9    2
 0.003255658473027805   11    4    9    6
 -2.31360612092113e-15   11    4   10    4
 0.006742471726163592   11    4   10    8
 0.001259595067423625   11    4   10    9
 0.0152196178340187   11    4   11    4
 2.844985289518134e-15   11    5    1    1
 2.843983754272312e-15   11    5    2    2
 2.226023112152016e-15   11    5    3    3
 1.469575161280162e-15   11    5    4    4
 0.002638271228329317   11    5    5    1
 -1.665951703658627e-15   11    5    5    2
 0.02174260323006336   11    5    5    3
 1.616441178895475e-15   11    5    5    5
 5.619040389232e-15   11    5    6    5
 0.01367802629486518   11    5    7    5
 1.146577284268659e-15   11    5    7    7
 -0.0003778559841281132   11    5    8    2
 0.003255658473027699   11    5    8    6
 -1.692665849126568e-15   11    5    9    1
 0.002022620884628056   11    5    9    2
 -3.601116702830089e-15   11    5    9    3
 -0.01742717621888863   11    5    9    6
 -2.864640125127804e-15   11    5    9    7
 -2.311654557010656e-15   11    5   10    5
 0.001259595067423611   11    5   10    8
 -0.006742471726163658   11    5   10    9
 0.01521961783401869   11    5   11    5
 7.104571515511096e-14   11    6    1    1
 -0.02918040174818676   11    6    2    1
 5.710002579811281e-14   11    6    2    2
 -2.933447891062882e-15   11    6    3    1
 0.003223562567188934   11    6    3    2
 4.371218556391276e-14   11    6    3    3
 3.674634923601927e-14   11    6    4    4
 3.676270713629665e-14   11    6    5    5
 -0.000580964398014824   11    6    6    1
 -0.0003634272442423981   11    6    6    3
 2.778921298803028e-14   11    6    6    6
 -0.001114002928677491   11    6    7    2
 -5.860709053479018e-15   11    6    7    3
 -0.01420553854310541   11    6    7    6
 3.231410364984422e-14   11    6    7    7
 -0.000483683376403891   11    6    8    4
 -9.035932516397705e-05   11    6    8    5
 2.047847130264105e-14   11    6    8    8
 -9.035932516392048e-05   11    6    9    4
 0.0004836833764038982   11    6    9    5
 2.05196887728874e-14   11    6    9    9
 -0.0002919628962810409   11    6   10    1
 0.004234609142377136   11    6   10    3
 9.956072695872092e-15   11    6   10    6
 0.0183920633874949   11    6   10    7