 &FCI NORB=  28,NELEC=14,MS2=0,
  ORBSYM=1,1,1,1,1,1,1,1,1,1,1,1,1,1,1,1,1,1,1,1,1,1,1,1,1,1,1,1,
  ISYM=1,
 &END
 2.239655739842788    1    1    1    1
 -3.012369132109071e-09    2    1    1    1
 1.88693081567199    2    1    2    1
 2.239772112697334    2    2    1    1
 3.012177064330704e-09    2    2    2    1
 2.239888503850809    2    2    2    2
 -0.1909128433481438    3    1    1    1
 1.547365159004371e-10    3    1    2    1
 -0.1909327339149053    3    1    2    2
 0.02980093954628327    3    1    3    1
 1.569208389681285e-10    3    2    1    1
 -0.1936677782506458    3    2    2    1
 -4.61432829720466e-10    3    2    2    2
 -9.979850752005564e-15    3    2    3    1
 0.02976280177758106    3    2    3    2
 0.6890726845271657    3    3    1    1
 -3.714191641759576e-13    3    3    2    1
 0.6890654304238433    3    3    2    2
 -0.003371862897211422    3    3    3    1
 -2.673064182924078e-12    3    3    3    2
 0.6098009161745824    3    3    3    3
 4.763331580011856e-10    4    1    1    1
 -0.1980704690044801    4    1    2    1
 -1.560496833351851e-10    4    1    2    2
 -4.617392908860288e-11    4    1    3    1
 0.02894118625230748    4    1    3    2
 9.740142989082297e-12    4    1    3    3
 0.03242656659113834    4    1    4    1
 -0.2007166467702655    4    2    1    1
 -1.581694540544182e-10    4    2    2    1
 -0.2007314354561493    4    2    2    2
 0.02889786672802963    4    2    3    1
 4.61594933306698e-11    4    2    3    2
 -0.01217920942573403    4    2    3    3
 -1.782317743769302e-14    4    2    4    1
 0.03247094993723003    4    2    4    2
 -4.281511935477439e-10    4    3    1    1
 0.2682242863792464    4    3    2    1
 4.282287822195103e-10    4    3    2    2
 6.681727677523624e-12    4    3    3    1
 -0.008355134477043925    4    3    3    2
 -4.418617164866911e-14    4    3    3    3
 -0.006211441049932114    4    3    4    1
 -4.96949767253966e-12    4    3    4    2
 0.1265685540546962    4    3    4    3
 0.6476636181841643    4    4    1    1
 3.124762892403268e-14    4    4    2    1
 0.6476753267260894    4    4    2    2
 -0.01014036408434281    4    4    3    1
 -8.087703829540811e-12    4    4    3    2
 0.4911503162809104    4    4    3    3
 5.380195412652672e-12    4    4    4    1
 -0.006762391687510803    4    4    4    2
 -1.584648211261364e-14    4    4    4    3
 0.507470646248932    4    4    4    4
 0.05960885413462419    5    1    1    1
 -4.055574856851101e-11    5    1    2    1
 0.05960378273957093    5    1    2    2
 -0.004729569723750612    5    1    3    1
 9.225930337690533e-14    5    1    3    2
 0.0165405804939849    5    1    3    3
 2.020079941191495e-11    5    1    4    1
 -0.01272981989011999    5    1    4    2
 1.338573430700526e-12    5    1    4    3
 -0.00373116980670639    5    1    4    4
 0.01566578955030314    5    1    5    1
 -3.368853081509218e-11    5    2    1    1
 0.05100002157960615    5    2    2    1
 1.291390664249478e-10    5    2    2    2
 9.219634726515295e-14    5    2    3    1
 -0.00486390556027582    5    2    3    2
 1.320780450252101e-11    5    2    3    3
 -0.01259700503222666    5    2    4    1
 -2.023100985185381e-11    5    2    4    2
 -0.001641936221712538    5    2    4    3
 -2.953449994741756e-12    5    2    4    4
 3.432620359686611e-13    5    2    5    1
 0.01524928845286716    5    2    5    2
 0.04585318893030962    5    3    1    1
 -7.945180410045209e-14    5    3    2    1
 0.04583895419192805    5    3    2    2
 0.005370945071000773    5    3    3    1
 4.28918164006864e-12    5    3    3    2
 0.09719804325950351    5    3    3    3
 3.197606761520127e-12    5    3    4    1
 -0.003979935305243902    5    3    4    2
 8.53059485030061e-14    5    3    4    3
 -0.00585472011644233    5    3    4    4
 0.0155048490342857    5    3    5    1
 1.236276479002181e-11    5    3    5    2
 0.0802813647579539    5    3    5    3
 3.389776338755806e-10    5    4    1    1
 -0.2123195481670046    5    4    2    1
 -3.389110656808756e-10    5    4    2    2
 -6.645235658188589e-12    5    4    3    1
 0.008330962877401121    5    4    3    2
 2.207113615135259e-13    5    4    3    3
 -0.0009372177819641143    5    4    4    1
 -7.330649259344149e-13    5    4    4    2
 -0.1134844384672013    5    4    4    3
 6.613039651472141e-14    5    4    4    4
 -1.174584952718315e-11    5    4    5    1
 0.014720973759652    5    4    5    2
 4.158424906502978e-14    5    4    5    3
 0.1524814599175834    5    4    5    4
 0.648529850339527    5    5    1    1
 1.534565678307191e-13    5    5    2    1
 0.6485377730194858    5    5    2    2
 -0.006286125532227033    5    5    3    1
 -5.022185521185579e-12    5    5    3    2
 0.5181993133250756    5    5    3    3
 3.936524003682063e-12    5    5    4    1
 -0.004933536576361247    5    5    4    2
 1.144163431533729e-13    5    5    4    3
 0.5055856824018627    5    5    4    4
 -0.001101492161637149    5    5    5    1
 -8.932127227526815e-13    5    5    5    2
 0.02113976432964476    5    5    5    3
 -1.137564435010896e-13    5    5    5    4
 0.5308804042271285    5    5    5    5
 0.01104292332511084    6    1    6    1
 1.408659578176543e-13    6    2    6    1
 0.01085333568654121    6    2    6    2
 0.0135445843404794    6    3    6    1
 1.079239163184227e-11    6    3    6    2
 0.07966748860232789    6    3    6    3
 -9.239789615260545e-12    6    4    6    1
 0.01157029152994707    6    4    6    2
 -3.070184086506624e-14    6    4    6    3
 0.05142780315092584    6    4    6    4
 -0.002718699897546807    6    5    6    1
 -2.175665567104858e-12    6    5    6    2
 -0.003676098018295017    6    5    6    3
 -8.541561882041006e-15    6    5    6    4
 0.02046640819240758    6    5    6    5
 0.6030086403513403    6    6    1    1
 -2.261523219064235e-13    6    6    2    1
 0.6030070998527983    6    6    2    2
 -0.002748086495848683    6    6    3    1
 -2.185122705182554e-12    6    6    3    2
 0.5189299166189419    6    6    3    3
 4.687728908879706e-12    6    6    4    1
 -0.005865426053852832    6    6    4    2
 -5.086317654983061e-14    6    6    4    3
 0.4632569117390656    6    6    4    4
 0.006359355662006759    6    6    5    1
 5.080200291741118e-12    6    6    5    2
 0.0447046016534143    6    6    5    3
 1.169348904003598e-13    6    6    5    4
 0.4634791252453293    6    6    5    5
 0.4930848739553433    6    6    6    6
 0.01104292332511086    7    1    7    1
 1.411031885478875e-13    7    2    7    1
 0.01085333568654124    7    2    7    2
 0.01354458434047941    7    3    7    1
 1.079265000221121e-11    7    3    7    2
 0.07966748860232789    7    3    7    3
 -1.014933689247483e-15    7    4    2    1
 -9.239521821189201e-12    7    4    7    1
 0.01157029152994708    7    4    7    2
 -2.955659799863662e-14    7    4    7    3
 0.05142780315092591    7    4    7    4
 -1.215052943177912e-15    7    5    2    1
 -0.002718699897546816    7    5    7    1
 -2.175743129052285e-12    7    5    7    2
 -0.003676098018295056    7    5    7    3
 -9.005288050208802e-15    7    5    7    4
 0.02046640819240761    7    5    7    5
 3.555316457803096e-15    7    6    2    1
 1.798650539053067e-15    7    6    4    3
 -1.53393515243921e-15    7    6    5    4
 0.01843805413728597    7    6    7    6
 0.6030086403513407    7    7    1    1
 -2.207687448205907e-13    7    7    2    1
 0.6030070998527987    7    7    2    2
 -0.002748086495848698    7    7    3    1
 -2.185252247050838e-12    7    7    3    2
 0.5189299166189423    7    7    3    3
 4.687641316324843e-12    7    7    4    1
 -0.005865426053852842    7    7    4    2
 -4.815635734196702e-14    7    7    4    3
 0.4632569117390659    7    7    4    4
 0.006359355662006757    7    7    5    1
 5.080168904095488e-12    7    7    5    2
 0.04470460165341426    7    7    5    3
 1.146345390301739e-13    7    7    5    4
 0.4634791252453295    7    7    5    5
 0.4562087656807717    7    7    6    6
 0.4930848739553437    7    7    7    7
 -1.72792448219656e-11    8    1    6    1
 0.01073829367172617    8    1    6    2
 -1.048494521608946e-11    8    1    6    3
 0.01146419799683015    8    1    6    4
 2.302218483891693e-12    8    1    6    5
 -7.898316779641727e-12    8    1    7    1
 0.00490845838970471    8    1    7    2
 -4.792660697063892e-12    8    1    7    3
 0.005240268198935492    8    1    7    4
 1.05233407122595e-12    8    1    7    5
 0.01284966479335276    8    1    8    1
 0.01090534276839241    8    2    6    1
 1.727229542063675e-11    8    2    6    2
 0.01312326633124863    8    2    6    3
 9.153316207646198e-12    8    2    6    4
 -0.002893262077766965    8    2    6    5
 0.004984816288370021    8    2    7    1
 7.895144050774923e-12    8    2    7    2
 0.00599862591703474    8    2    7    3
 4.183977597811572e-12    8    2    7    4
 -0.001322505879739724    8    2    7    5
 -1.369592095070161e-13    8    2    8    1
 0.0130261147550961    8    2    8    2
 -8.307806717880154e-12    8    3    6    1
 0.01039583320613507    8    3    6    2
 -6.331909414304054e-14    8    3    6    3
 0.04392130800641045    8    3    6    4
 -1.501309805419655e-14    8    3    6    5
 -3.797492966571645e-12    8    3    7    1
 0.00475192020991003    8    3    7    2
 -2.905259422097273e-14    8    3    7    3
 0.02007636588841913    8    3    7    4
 -6.910127857035105e-15    8    3    7    5
 0.01235665749242679    8    3    8    1
 9.858928449933167e-12    8    3    8    2
 0.04759394430556591    8    3    8    3
 0.01274254941215912    8    4    6    1
 1.017121990667358e-11    8    4    6    2
 0.06222144723243788    8    4    6    3
 2.539370258520037e-14    8    4    6    4
 -0.01908301253383551    8    4    6    5
 0.005824600768092524    8    4    7    1
 4.649256003791378e-12    8    4    7    2
 0.02844133286201463    8    4    7    3
 1.16933646552812e-14    8    4    7    4
 -0.008722817221806156    8    4    7    5
 -1.209175267665549e-11    8    4    8    1
 0.01516087734794653    8    4    8    2
 2.411030883945852e-15    8    4    8    3
 0.07487218342320781    8    4    8    4
 3.333222611054538e-12    8    5    6    1
 -0.004185438487994301    8    5    6    2
 -2.330023338696163e-14    8    5    6    3
 -0.02445613849082458    8    5    6    4
 2.225770661698161e-14    8    5    6    5
 1.523606029238912e-12    8    5    7    1
 -0.001913157833919271    8    5    7    2
 -1.06913514795992e-14    8    5    7    3
 -0.0111788652671269    8    5    7    4
 1.018689575585023e-14    8    5    7    5
 -0.00521119855647032    8    5    8    1
 -4.171675000717839e-12    8    5    8    2
 -0.02016990531991768    8    5    8    3
 -5.890406997327734e-14    8    5    8    4
 0.02609211818489729    8    5    8    5
 -4.06227244238151e-10    8    6    1    1
 0.2544396335558699    8    6    2    1
 4.061415008339974e-10    8    6    2    2
 4.181908408303886e-12    8    6    3    1
 -0.005234073231095204    8    6    3    2
 -1.820101178867863e-13    8    6    3    3
 -0.003280903979317357    8    6    4    1
 -2.622454983807322e-12    8    6    4    2
 0.1260671420411334    8    6    4    3
 -9.510115167452588e-15    8    6    4    4
 1.504701931054052e-12    8    6    5    1
 -0.001879731209543475    8    6    5    2
 -2.516877629375372e-14    8    6    5    3
 -0.1081409982693875    8    6    5    4
 7.687611184734978e-14    8    6    5    5
 -1.330061007078637e-13    8    6    6    6
 -3.040644992735597e-15    8    6    7    6
 -1.088800002848472e-13    8    6    7    7
 0.145529050234317    8    6    8    6
 -1.856859092732647e-10    8    7    1    1
 0.1163039857336983    8    7    2    1
 1.856466177777649e-10    8    7    2    2
 1.911541653675229e-12    8    7    3    1
 -0.00239248724693969    8    7    3    2
 -8.328535548191849e-14    8    7    3    3
 -0.001499696428073855    8    7    4    1
 -1.198719843354721e-12    8    7    4    2
 0.0576251069243133    8    7    4    3
 -4.323164153474236e-15    8    7    4    4
 6.877893995734362e-13    8    7    5    1
 -0.0008592223967730566    8    7    5    2
 -1.158101097963469e-14    8    7    5    3
 -0.04943109272789071    8    7    5    4
 3.51232759845669e-14    8    7    5    5
 -5.068471684022136e-14    8    7    6    6
 -9.583669578414056e-15    8    7    7    6
 -5.950101522600448e-14    8    7    7    7
 0.05956659040050068    8    7    8    6
 0.04244230302840973    8    7    8    7
 0.6122813337664799    8    8    1    1
 1.322566085776737e-13    8    8    2    1
 0.612283751451926    8    8    2    2
 -0.004616776457304746    8    8    3    1
 -3.683528230243344e-12    8    8    3    2
 0.4958149615626289    8    8    3    3
 4.39236789792463e-12    8    8    4    1
 -0.005505503150826713    8    8    4    2
 9.612665789846174e-14    8    8    4    3
 0.4732655531860303    8    8    4    4
 0.002838610336896212    8    8    5    1
 2.268699085493244e-12    8    8    5    2
 0.02043007845738583    8    8    5    3
 -5.397925038158496e-14    8    8    5    4
 0.4667587139339636    8    8    5    5
 0.4755196833786598    8    8    6    6
 0.01318842921701414    8    8    7    6
 0.4526956093533333    8    8    7    7
 7.00144694824878e-14    8    8    8    6
 3.194059600142296e-14    8    8    8    7
 0.4836135655844355    8    8    8    8
 7.898324629671182e-12    9    1    6    1
 -0.004908458389704729    9    1    6    2
 4.792627717166429e-12    9    1    6    3
 -0.005240268198935498    9    1    6    4
 -1.052365305252824e-12    9    1    6    5
 -1.727920494024547e-11    9    1    7    1
 0.01073829367172618    9    1    7    2
 -1.048492229572295e-11    9    1    7    3
 0.01146419799683015    9    1    7    4
 2.302203299736363e-12    9    1    7    5
 0.0128496647933528    9    1    9    1
 -0.004984816288370037    9    2    6    1
 -7.895129713553406e-12    9    2    6    2
 -0.005998625917034767    9    2    6    3
 -4.183934439372602e-12    9    2    6    4
 0.001322505879739697    9    2    6    5
 0.01090534276839242    9    2    7    1
 1.727233437827059e-11    9    2    7    2
 0.01312326633124865    9    2    7    3
 9.153360116946538e-12    9    2    7    4
 -0.002893262077766958    9    2    7    5
 -1.368250032790988e-13    9    2    9    1
 0.01302611475509613    9    2    9    2
 3.797458118991961e-12    9    3    6    1
 -0.004751920209910035    9    3    6    2
 2.853030473157902e-14    9    3    6    3
 -0.02007636588841909    9    3    6    4
 6.678367706105907e-15    9    3    6    5
 -8.307782248929376e-12    9    3    7    1
 0.01039583320613508    9    3    7    2
 -6.334764935724608e-14    9    3    7    3
 0.04392130800641044    9    3    7    4
 -1.507925850379037e-14    9    3    7    5
 -1.011465563761089e-15    9    3    8    4
 0.0123566574924268    9    3    9    1
 9.859067168106276e-12    9    3    9    2
 0.04759394430556592    9    3    9    3
 -0.005824600768092528    9    4    6    1
 -4.649219586632658e-12    9    4    6    2
 -0.02844133286201466    9    4    6    3
 -1.134763912845744e-14    9    4    6    4
 0.008722817221805993    9    4    6    5
 0.01274254941215913    9    4    7    1
 1.017126403405274e-11    9    4    7    2
 0.06222144723243789    9    4    7    3
 2.5579574663228e-14    9    4    7    4
 -0.01908301253383547    9    4    7    5
 -1.209160697623666e-11    9    4    9    1
 0.01516087734794655    9    4    9    2
 2.981465461345301e-15    9    4    9    3
 0.07487218342320778    9    4    9    4
 -1.616283345486397e-15    9    5    2    1
 -1.523633884679311e-12    9    5    6    1
 0.001913157833919268    9    5    6    2
 1.046812785400809e-14    9    5    6    3
 0.01117886526712683    9    5    6    4
 -1.012317893825044e-14    9    5    6    5
 3.333205741276498e-12    9    5    7    1
 -0.004185438487994303    9    5    7    2
 -2.336092787600308e-14    9    5    7    3
 -0.02445613849082455    9    5    7    4
 2.230056321728453e-14    9    5    7    5
 -0.005211198556470328    9    5    9    1
 -4.171720585568259e-12    9    5    9    2
 -0.02016990531991767    9    5    9    3
 -5.916591930489089e-14    9    5    9    4
 0.02609211818489729    9    5    9    5
 1.856857496380785e-10    9    6    1    1
 -0.1163039857336982    9    6    2    1
 -1.856467496536409e-10    9    6    2    2
 -1.91156044132123e-12    9    6    3    1
 0.002392487246939691    9    6    3    2
 8.28338516668026e-14    9    6    3    3
 0.001499696428073872    9    6    4    1
 1.1987276042479e-12    9    6    4    2
 -0.05762510692431323    9    6    4    3
 4.346295988704675e-15    9    6    4    4
 -6.87839912777695e-13    9    6    5    1
 0.0008592223967730291    9    6    5    2
 1.122840722006104e-14    9    6    5    3
 0.0494310927278905    9    6    5    4
 -3.51723542263007e-14    9    6    5    5
 6.053459870956207e-14    9    6    6    6
 -1.15940514567453e-14    9    6    7    6
 5.009599506056173e-14    9    6    7    7
 -0.05956659040050059    9    6    8    6
 -0.01201330031707822    9    6    8    7
 -2.612280271924953e-14    9    6    8    8
 0.04244230302840963    9    6    9    6
 -4.062266892296081e-10    9    7    1    1
 0.25443963355587    9    7    2    1
 4.061420835100398e-10    9    7    2    2
 4.181894260395146e-12    9    7    3    1
 -0.005234073231095203    9    7    3    2
 -1.817067512360569e-13    9    7    3    3
 -0.003280903979317358    9    7    4    1
 -2.622469653204105e-12    9    7    4    2
 0.1260671420411334    9    7    4    3
 -9.101102813789818e-15    9    7    4    4
 1.504704005895609e-12    9    7    5    1
 -0.001879731209543475    9    7    5    2
 -2.522288069924481e-14    9    7    5    3
 -0.1081409982693874    9    7    5    4
 7.718847476175416e-14    9    7    5    5
 -1.11470321905241e-13    9    7    6    6
 6.604607269075635e-15    9    7    7    6
 -1.297023740579745e-13    9    7    7    7
 0.1151000475229856    9    7    8    6
 0.05956659040050068    9    7    8    7
 5.602629295285537e-14    9    7    8    8
 -0.05956659040050059    9    7    9    6
 0.1455290502343171    9    7    9    7
 -4.480347345332469e-15    9    8    2    1
 -2.221997063832612e-15    9    8    4    3
 1.925307590791131e-15    9    8    5    4
 -0.01318842921701422    9    8    6    6
 0.01141203701266331    9    8    7    6
 0.01318842921701405    9    8    7    7
 -5.474014796134907e-15    9    8    8    6
 6.005843066793359e-15    9    8    8    7
 8.230334545399759e-15    9    8    9    6
 0.01857584199007535    9    8    9    8
 0.61228133376648    9    9    1    1
 1.350871419719063e-13    9    9    2    1
 0.612283751451926    9    9    2    2
 -0.004616776457304768    9    9    3    1
 -3.683577793018751e-12    9    9    3    2
 0.4958149615626289    9    9    3    3
 4.392358576499894e-12    9    9    4    1
 -0.005505503150826728    9    9    4    2
 9.741687399713963e-14    9    9    4    3
 0.4732655531860304    9    9    4    4
 0.002838610336896212    9    9    5    1
 2.268673524982203e-12    9    9    5    2
 0.02043007845738579    9    9    5    3
 -5.510439017630936e-14    9    9    5    4
 0.4667587139339636    9    9    5    5
 0.4526956093533329    9    9    6    6
 -0.01318842921701415    9    9    7    6
 0.4755196833786599    9    9    7    7
 5.742807488232082e-14    9    9    8    6
 2.568355684379187e-14    9    9    8    7
 0.4464618816042848    9    9    8    8
 -3.269975436259731e-14    9    9    9    6
 7.193551310180624e-14    9    9    9    7
 0.4836135655844354    9    9    9    9
 -2.54938966445568e-10   10    1    1    1
 0.1089433570112432   10    1    2    1
 9.287746966893326e-11   10    1    2    2
 3.102336396042852e-11   10    1    3    1
 -0.0193660907972217   10    1    3    2
 7.349956773136386e-12   10    1    3    3
 -0.01298973213277355   10    1    4    1
 -1.033449278598633e-13   10    1    4    2
 0.006890196312106271   10    1    4    3
 -8.153340548148818e-12   10    1    4    4
 1.240515749868308e-11   10    1    5    1
 -0.007582718084291162   10    1    5    2
 1.191788058215251e-11   10    1    5    3
 -0.01671263142297986   10    1    5    4
 -4.685979170882329e-12   10    1    5    5
 2.305295033642671e-12   10    1    6    6
 2.305390091068144e-12   10    1    7    7
 0.004441920815792752   10    1    8    6
 0.002030395532214677   10    1    8    7
 -7.269067727911781e-13   10    1    8    8
 -0.002030395532214656   10    1    9    6
 0.004441920815792753   10    1    9    7
 -7.268538052798874e-13   10    1    9    9
 0.02062577798945041   10    1   10    1
 0.1014905992835224   10    2    1    1
 8.693017195250107e-11   10    2    2    1
 0.101509705233221   10    2    2    2
 -0.01948639787449186   10    2    3    1
 -3.100030312514842e-11   10    2    3    2
 -0.009221359115639717   10    2    3    3
 -1.03686001557943e-13   10    2    4    1
 -0.01287829267896128   10    2    4    2
 5.477863984897774e-12   10    2    4    3
 0.01019716881867449   10    2    4    4
 -0.007944916262625773   10    2    5    1
 -1.238288542664429e-11   10    2    5    2
 -0.01492364511000579   10    2    5    3
 -1.33510913777465e-11   10    2    5    4
 0.005894828107510563   10    2    5    5
 -0.002894260048149598   10    2    6    6
 -0.002894260048149587   10    2    7    7
 3.543799659917659e-12   10    2    8    6
 1.619875423847141e-12   10    2    8    7
 0.000912020312552306   10    2    8    8
 -1.619826424685208e-12   10    2    9    6
 3.5438149268395e-12   10    2    9    7
 0.0009120203125523152   10    2    9    9
 -2.55668165024821e-13   10    2   10    1
 0.02094731493570254   10    2   10    2
 2.801144022323784e-10   10    3    1    1
 -0.175427998108405   10    3    2    1
 -2.799878689298663e-10   10    3    2    2
 -1.966042175396382e-12   10    3    3    1
 0.002455305153371777   10    3    3    2
 1.363118602368263e-13   10    3    3    3
 0.00868462846165193   10    3    4    1
 6.920802147092098e-12   10    3    4    2
 -0.06532801534912241   10    3    4    3
 -5.116995152251724e-14   10    3    4    4
 9.67836755529116e-12   10    3    5    1
 -0.01212192768557917   10    3    5    2
 7.538837176052082e-14   10    3    5    3
 0.0110088959498657   10    3    5    4
 2.064689565151046e-14   10    3    5    5
 9.102874704014496e-14   10    3    6    6
 8.95917996908413e-14   10    3    7    7
 -0.06747484715758195   10    3    8    6
 -0.03084265431264153   10    3    8    7
 -1.386343906968797e-14   10    3    8    8
 0.0308426543126416   10    3    9    6
 -0.06747484715758198   10    3    9    7
 1.165720623329258e-15   10    3    9    8
 -1.458924127339944e-14   10    3    9    9
 0.007431308609846147   10    3   10    1
 5.929832219837264e-12   10    3   10    2
 0.08233772142389874   10    3   10    3
 -0.08217142088269297   10    4    1    1
 -2.273482104035245e-13   10    4    2    1
 -0.08216238232920892   10    4    2    2
 -0.000580053781166421   10    4    3    1
 -4.636318693058191e-13   10    4    3    2
 -0.08344109882470105   10    4    3    3
 -5.196752828274176e-12   10    4    4    1
 0.006508450706056197   10    4    4    2
 -1.689499234958092e-13   10    4    4    3
 -0.0118160069549317   10    4    4    4
 -0.01268185864854007   10    4    5    1
 -1.013301348075845e-11   10    4    5    2
 -0.05237522637307487   10    4    5    3
 2.996566753413199e-14   10    4    5    4
 -0.01163602007243706   10    4    5    5
 -0.0564839968225548   10    4    6    6
 -0.05648399682255478   10    4    7    7
 -9.313261425079877e-14   10    4    8    6
 -4.252419813846608e-14   10    4    8    7
 -0.04054167926379514   10    4    8    8
 4.276386102869401e-14   10    4    9    6
 -9.314239917540545e-14   10    4    9    7
 -0.04054167926379514   10    4    9    9
 -7.820645648737859e-12   10    4   10    1
 0.009806282293611286   10    4   10    2
 5.825486035400396e-14   10    4   10    3
 0.05393712071422101   10    4   10    4
 3.524913276721643e-10   10    5    1    1
 -0.2207596192378686   10    5    2    1
 -3.523446272005336e-10   10    5    2    2
 -3.319612675682021e-12   10    5    3    1
 0.004156384219681238   10    5    3    2
 2.059335639298041e-13   10    5    3    3
 0.003029724195472524   10    5    4    1
 2.415740260181519e-12   10    5    4    2
 -0.1045321193587731   10    5    4    3
 2.005408100864969e-14   10    5    4    4
 -7.17207110520967e-13   10    5    5    1
 0.0009083347532729514   10    5    5    2
 5.813893203671094e-14   10    5    5    3
 0.1047341997743185   10    5    5    4
 -7.650358211513941e-14   10    5    5    5
 1.261789338378311e-13   10    5    6    6
 -1.393199791643873e-15   10    5    7    6
 1.241143418508756e-13   10    5    7    7
 -0.09774948141131606   10    5    8    6
 -0.04468114551439088   10    5    8    7
 -2.688701109085541e-14   10    5    8    8
 0.04468114551439079   10    5    9    6
 -0.09774948141131609   10    5    9    7
 1.724125399740761e-15   10    5    9    8
 -2.794981043482969e-14   10    5    9    9
 -0.003596990185094489   10    5   10    1
 -2.878988224509489e-12   10    5   10    2
 0.05149157623415783   10    5   10    3
 5.024187446286965e-14   10    5   10    4
 0.1116724714721491   10    5   10    5
 5.119425917627135e-12   10    6    6    1
 -0.006406060180912994   10    6    6    2
 3.675526682685944e-14   10    6    6    3
 -0.02120316947308229   10    6    6    4
 1.910380598172746e-14   10    6    6    5
 -0.006144570801093684   10    6    8    1
 -4.902622076188312e-12   10    6    8    2
 -0.0233585856564828   10    6    8    3
 -1.239330702630775e-14   10    6    8    4
 -0.002446501990788801   10    6    8    5
 0.002808674359425949   10    6    9    1
 2.240975926238326e-12   10    6    9    2
 0.01067717546588291   10    6    9    3
 5.638433939864152e-15   10    6    9    4
 0.001118292494992442   10    6    9    5
 0.02458278926676322   10    6   10    6
 -1.051169487604824e-15   10    7    2    1
 5.119289983900803e-12   10    7    7    1
 -0.006406060180912996   10    7    7    2
 3.615261299334042e-14   10    7    7    3
 -0.02120316947308228   10    7    7    4
 1.899852780636511e-14   10    7    7    5
 -0.00280867435942592   10    7    8    1
 -2.240982698696342e-12   10    7    8    2
 -0.01067717546588281   10    7    8    3
 -5.677360417444535e-15   10    7    8    4
 -0.001118292494992474   10    7    8    5
 -0.006144570801093692   10    7    9    1
 -4.902638491361367e-12   10    7    9    2
 -0.02335858565648283   10    7    9    3
 -1.243730119212619e-14   10    7    9    4
 -0.002446501990788795   10    7    9    5
 0.02458278926676323   10    7   10    7
 -0.006096455659612646   10    8    6    1
 -4.864193250276368e-12   10    8    6    2
 -0.03265693512864833   10    8    6    3
 -2.027991654442298e-14   10    8    6    4
 -0.007762861545077926   10    8    6    5
 -0.002786680998367424   10    8    7    1
 -2.223418074731099e-12   10    8    7    2
 -0.01492743746022819   10    8    7    3
 -9.287573915797677e-15   10    8    7    4
 -0.003548392700358027   10    8    7    5
 5.584768687242174e-12   10    8    8    1
 -0.006999431311476284   10    8    8    2
 -1.137483748082784e-15   10    8    8    3
 -0.02274971804669665   10    8    8    4
 1.194633163418927e-14   10    8    8    5
 0.02625225288439304   10    8   10    8
 0.002786680998367434   10    9    6    1
 2.223411550876267e-12   10    9    6    2
 0.01492743746022828   10    9    6    3
 9.245567956498617e-15   10    9    6    4
 0.003548392700358072   10    9    6    5
 -0.006096455659612652   10    9    7    1
 -4.864210158830275e-12   10    9    7    2
 -0.03265693512864835   10    9    7    3
 -2.03256028907134e-14   10    9    7    4
 -0.007762861545077941   10    9    7    5
 5.584697849786861e-12   10    9    9    1
 -0.006999431311476292   10    9    9    2
 -1.424973876478082e-15   10    9    9    3
 -0.02274971804669664   10    9    9    4
 1.190313460451749e-14   10    9    9    5
 0.02625225288439303   10    9   10    9
 0.645633623526686   10   10    1    1
 6.062483122360894e-14   10   10    2    1
 0.6456306873640933   10   10    2    2
 -0.003554130804794137   10   10    3    1
 -2.831415162822103e-12   10   10    3    2
 0.5345450863094999   10   10    3    3
 8.294050218694382e-12   10   10    4    1
 -0.01038331302318264   10   10    4    2
 1.047383750910069e-13   10   10    4    3
 0.4670628232924809   10   10    4    4
 0.01314347102026857   10   10    5    1
 1.049595409839525e-11   10   10    5    2
 0.06033423667364452   10   10    5    3
 2.647426548818554e-14   10   10    5    4
 0.4922832679737877   10   10    5    5
 0.4653078271787361   10   10    6    6
 0.4653078271787363   10   10    7    7
 1.534015969806291e-14   10   10    8    6
 6.947513311178488e-15   10   10    8    7
 0.4561581735401375   10   10    8    8
 -7.184790956626941e-15   10   10    9    6
 1.558388834643765e-14   10   10    9    7
 0.4561581735401375   10   10    9    9
 5.370878089196391e-12   10   10   10    1
 -0.006731325887912947   10   10   10    2
 7.1279787627887e-15   10   10   10    3
 -0.04841446597991336   10   10   10    4
 8.455042221910958e-15   10   10   10    5
 0.5025223056018636   10   10   10   10
 -1.108387915397837e-10   11    1    1    1
 0.0431721121388395   11    1    2    1
 2.700656227449881e-11   11    1    2    2
 4.584716253454505e-12   11    1    3    1
 -0.002915988154197307   11    1    3    2
 -1.403502916862235e-11   11    1    3    3
 -0.01239976196313902   11    1    4    1
 1.837095005538026e-13   11    1    4    2
 -0.002168586520712803   11    1    4    3
 4.179706917622735e-12   11    1    4    4
 -2.923624121906404e-11   11    1    5    1
 0.01806387120835288   11    1    5    2
 -1.386776042849695e-11   11    1    5    3
 0.01701634182377528   11    1    5    4
 1.939597543991131e-12   11    1    5    5
 -5.31971057374063e-12   11    1    6    6
 -5.31975284407283e-12   11    1    7    7
 -0.002110815334515909   11    1    8    6