 &FCI NORB=  28,NELEC=14,MS2=0,
  ORBSYM=1,1,1,1,1,1,1,1,1,1,1,1,1,1,1,1,1,1,1,1,1,1,1,1,1,1,1,1,
  ISYM=1,
 &END
 2.323835998394246    1    1    1    1
 -1.362389617353549e-11    2    1    1    1
 1.796297424809193    2    1    2    1
 2.325789934189391    2    2    1    1
 1.361013016697166e-11    2    2    2    1
 2.327747724131651    2    2    2    2
 -0.2069500564463448    3    1    1    1
 8.420643858169123e-13    3    1    2    1
 -0.2073325879198122    3    1    2    2
 0.04107457896236725    3    1    3    1
 8.963718405496836e-13    3    2    1    1
 -0.2216733797061639    3    2    2    1
 -2.465931284715466e-12    3    2    2    2
 2.315640905818672e-15    3    2    3    1
 0.04043500616120161    3    2    3    2
 0.8935562819535575    3    3    1    1
 0.8933543063419341    3    3    2    2
 0.008852025709161944    3    3    3    1
 3.363677609016791e-14    3    3    3    2
 0.8773091599459495    3    3    3    3
 -1.988936947200349e-12    4    1    1    1
 0.1711063623424605    4    1    2    1
 6.042710684042371e-13    4    1    2    2
 1.914574038842037e-13    4    1    3    1
 -0.02553052014125349    4    1    3    2
 -9.961888085274762e-14    4    1    3    3
 0.02776214806119028    4    1    4    1
 0.1812717393409981    4    2    1    1
 6.443866758411429e-13    4    2    2    1
 0.1815163788449201    4    2    2    2
 -0.02497960813252412    4    2    3    1
 -1.913526049445629e-13    4    2    3    2
 0.02556085655439058    4    2    3    3
 -3.856113045452229e-15    4    2    4    1
 0.02819476642999915    4    2    4    2
 1.102519341285042e-12    4    3    1    1
 -0.1466335473721001    4    3    2    1
 -1.120589190016508e-12    4    3    2    2
 -3.652904801559886e-14    4    3    3    1
 0.009419537279654513    4    3    3    2
 -1.187255588980252e-14    4    3    3    3
 -0.003196936164453211    4    3    4    1
 -1.304818679861465e-14    4    3    4    2
 0.04239837557636793    4    3    4    3
 0.6719364947773155    4    4    1    1
 -3.786715678435332e-14    4    4    2    1
 0.6720833672531661    4    4    2    2
 -0.01420952966695777    4    4    3    1
 -5.120307389888668e-14    4    4    3    2
 0.5317946980159308    4    4    3    3
 -7.484796474017258e-15    4    4    4    1
 0.002329201157963883    4    4    4    2
 1.152290068917594e-14    4    4    4    3
 0.5431595338012121    4    4    4    4
 0.0133281244515653    5    1    5    1
 3.153760812418381e-15    5    2    5    1
 0.01245353587034126    5    2    5    2
 0.01913159681642225    5    3    5    1
 7.233460413406268e-14    5    3    5    2
 0.1088259548002551    5    3    5    3
 4.017327990122407e-14    5    4    5    1
 -0.01048923837976612    5    4    5    2
 1.258500596458342e-15    5    4    5    3
 0.03934008906152728    5    4    5    4
 0.7168716651651882    5    5    1    1
 -2.358668372979818e-15    5    5    2    1
 0.7168439394096232    5    5    2    2
 0.001098254999629098    5    5    3    1
 4.285522259510838e-15    5    5    3    2
 0.6705807525058638    5    5    3    3
 -3.76837358968904e-14    5    5    4    1
 0.009696064016305687    5    5    4    2
 -4.627404358167465e-15    5    5    4    3
 0.5039842711332658    5    5    4    4
 0.6062858181732447    5    5    5    5
 0.01332812445156533    6    1    6    1
 3.184102229039719e-15    6    2    6    1
 0.01245353587034128    6    2    6    2
 0.01913159681642227    6    3    6    1
 7.235357804717207e-14    6    3    6    2
 0.1088259548002551    6    3    6    3
 4.015341252640194e-14    6    4    6    1
 -0.01048923837976613    6    4    6    2
 1.211854053549879e-15    6    4    6    3
 0.03934008906152726    6    4    6    4
 0.02516452564078141    6    5    6    5
 0.7168716651651886    6    6    1    1
 -1.914511201964457e-15    6    6    2    1
 0.7168439394096238    6    6    2    2
 0.001098254999629095    6    6    3    1
 4.265146594013341e-15    6    6    3    2
 0.6705807525058641    6    6    3    3
 -3.765329889076323e-14    6    6    4    1
 0.009696064016305704    6    6    4    2
 -4.682856537400058e-15    6    6    4    3
 0.5039842711332662    6    6    4    4
 0.5559567668916822    6    6    5    5
 0.6062858181732453    6    6    6    6
 0.07150502680115317    7    1    1    1
 -1.805755074480819e-13    7    1    2    1
 0.07153056017212397    7    1    2    2
 -0.001109901250685327    7    1    3    1
 2.434640352820192e-15    7    1    3    2
 0.03564933092387799    7    1    3    3
 -1.171515590767569e-13    7    1    4    1
 0.01593965831889185    7    1    4    2
 -1.043991824413448e-14    7    1    4    3
 -0.006668841270322628    7    1    4    4
 0.01211302889680358    7    1    5    5
 0.01211302889680359    7    1    6    6
 0.01795757527616297    7    1    7    1
 -1.015365481987383e-13    7    2    1    1
 0.05087153715352021    7    2    2    1
 6.698222832713838e-13    7    2    2    2
 2.483743699805471e-15    7    2    3    1
 -0.002231895743065754    7    2    3    2
 1.370105607743574e-13    7    2    3    3
 0.01514106831466501    7    2    4    1
 1.186017870556406e-13    7    2    4    2
 0.002331515561890043    7    2    4    3
 -2.247213645636265e-14    7    2    4    4
 4.667539141647858e-14    7    2    5    5
 4.66692792267312e-14    7    2    6    6
 8.45242499598306e-15    7    2    7    1
 0.01632826994371901    7    2    7    2
 0.112327019314311    7    3    1    1
 -9.48943546896612e-15    7    3    2    1
 0.1121621458201935    7    3    2    2
 0.01009273476876124    7    3    3    1
 3.892044564239583e-14    7    3    3    2
 0.1505047222096879    7    3    3    3
 -3.475540168162983e-14    7    3    4    1
 0.00876126691197005    7    3    4    2
 -2.240829050093041e-15    7    3    4    3
 0.009804497595446921    7    3    4    4
 0.06607757206005745    7    3    5    5
 0.06607757206005749    7    3    6    6
 0.0169475629710408    7    3    7    1
 6.502917236812789e-14    7    3    7    2
 0.06376653047252938    7    3    7    3
 -1.903240335243608e-12    7    4    1    1
 0.250588439021696    7    4    2    1
 1.895963922427142e-12    7    4    2    2
 6.727521236491243e-14    7    4    3    1
 -0.01785211742253393    7    4    3    2
 -5.200484140543971e-15    7    4    3    3
 -0.004997582529207504    7    4    4    1
 -1.770114545392165e-14    7    4    4    2
 -0.08167783868900153    7    4    4    3
 -3.283159334677155e-14    7    4    4    4
 -2.865763182313685e-15    7    4    5    5
 -2.733382097053205e-15    7    4    6    6
 6.509807341618934e-14    7    4    7    1
 -0.01740353768463059    7    4    7    2
 -7.781535832362962e-15    7    4    7    3
 0.2140903916008524    7    4    7    4
 -0.004318009941017783    7    5    5    1
 -1.706648851639941e-14    7    5    5    2
 -0.01321062575819498    7    5    5    3
 0.02488705287178204    7    5    7    5
 -0.004318009941017792    7    6    6    1
 -1.708428241275546e-14    7    6    6    2
 -0.01321062575819499    7    6    6    3
 0.02488705287178207    7    6    7    6
 0.705858574876115    7    7    1    1
 3.707282961520897e-14    7    7    2    1
 0.7059128659472902    7    7    2    2
 -0.008629788024420451    7    7    3    1
 -3.533837718977528e-14    7    7    3    2
 0.5838176620426387    7    7    3    3
 -1.576820271576018e-14    7    7    4    1
 0.003997468847167132    7    7    4    2
 -1.50487261540988e-14    7    7    4    3
 0.5476564687018494    7    7    4    4
 0.5186139409861982    7    7    5    5
 0.5186139409861984    7    7    6    6
 -0.0009650614001802058    7    7    7    1
 -5.918375056528091e-15    7    7    7    2
 0.03709163658722443    7    7    7    3
 2.998431581149874e-14    7    7    7    4
 0.5682164615857364    7    7    7    7
 -5.53212477193113e-14    8    1    5    1
 0.00710043825765447    8    1    5    2
 -3.756691484333759e-14    8    1    5    3
 -0.006104042951791924    8    1    5    4
 -7.019579036449205e-14    8    1    6    1
 0.009011137428490492    8    1    6    2
 -4.766139415908529e-14    8    1    6    3
 -0.00774661618227713    8    1    6    4
 1.020074324488418e-14    8    1    7    5
 1.293744571109062e-14    8    1    7    6
 0.01059720204211559    8    1    8    1
 0.007486548292179788    8    2    5    1
 5.525224885218768e-14    8    2    5    2
 0.009907952602416288    8    2    5    3
 -2.291223387401771e-14    8    2    5    4
 0.009501148109151803    8    2    6    1
 7.01294320443344e-14    8    2    6    2
 0.01257414251001968    8    2    6    3
 -2.908926532941747e-14    8    2    6    4
 -0.002804037402169546    8    2    7    5
 -0.003558592507770644    8    2    7    6
 -1.584925960158471e-15    8    2    8    1
 0.01103508372529164    8    2    8    2
 -2.226301909427758e-14    8    3    5    1
 0.00587022812071398    8    3    5    2
 -0.01845525359085829    8    3    5    4
 -2.823750661045969e-14    8    3    6    1
 0.007449882727353932    8    3    6    2
 -0.02342148756882538    8    3    6    4
 -1.273720712235971e-15    8    3    7    5
 -1.644328119845828e-15    8    3    7    6
 0.008582018810260838    8    3    8    1
 3.260451976982781e-14    8    3    8    2
 0.02700324326092791    8    3    8    3
 -0.008594575187802742    8    4    5    1
 -3.223934884500882e-14    8    4    5    2
 -0.03864531139781697    8    4    5    3
 -3.291257825032641e-15    8    4    5    4
 -0.01090734055370383    8    4    6    1
 -4.092470659468016e-14    8    4    6    2
 -0.04904460814050835    8    4    6    3
 -4.148534857984182e-15    8    4    6    4
 0.02163327856690911    8    4    7    5
 0.02745470619156275    8    4    7    6
 4.830273968771413e-14    8    4    8    1
 -0.01264043422485228    8    4    8    2
 1.344583589203252e-15    8    4    8    3
 0.0702934234795612    8    4    8    4
 -1.029541522058841e-12    8    5    1    1
 0.135765704602844    8    5    2    1
 1.02881397629792e-12    8    5    2    2
 2.289798650586401e-14    8    5    3    1
 -0.006026256479365793    8    5    3    2
 0.0005828422131161044    8    5    4    1
 2.468368318206741e-15    8    5    4    2
 -0.04201739186225566    8    5    4    3
 -1.224308552252255e-14    8    5    4    4
 1.156981344470937e-14    8    5    7    1
 -0.003037060508226818    8    5    7    2
 -2.840033821231002e-15    8    5    7    3
 0.08048440065671478    8    5    7    4
 1.185523135750478e-14    8    5    7    7
 0.05596344650974724    8    5    8    5
 -1.306228102010319e-12    8    6    1    1
 0.1722997057165037    8    6    2    1
 1.306020260515766e-12    8    6    2    2
 2.905323023511224e-14    8    6    3    1
 -0.007647897685238767    8    6    3    2
 0.0007396826915371088    8    6    4    1
 3.142712036693513e-15    8    6    4    2
 -0.05332410179742848    8    6    4    3
 -1.529338099100447e-14    8    6    4    4
 1.468768332620483e-14    8    6    7    1
 -0.003854321187677421    8    6    7    2
 -3.576454223962913e-15    8    6    7    3
 0.10214242682633    8    6    7    4
 1.531206114049252e-14    8    6    7    7
 0.05464165772699551    8    6    8    5
 0.08225337646535949    8    6    8    6
 1.447952823373938e-14    8    7    5    1
 -0.003978827182810568    8    7    5    2
 -2.758633024654502e-15    8    7    5    3
 0.02121968600355138    8    7    5    4
 1.836141755470157e-14    8    7    6    1
 -0.005049513459238696    8    7    6    2
 -3.56376517643506e-15    8    7    6    3
 0.02692981754489359    8    7    6    4
 3.157630407146783e-15    8    7    7    5
 4.060825026935833e-15    8    7    7    6
 -0.006365246117145984    8    7    8    1
 -2.508538280237114e-14    8    7    8    2
 -0.02103115508557111    8    7    8    3
 2.706717747470779e-15    8    7    8    4
 0.03754829333727958    8    7    8    7
 0.606698841324622    8    8    1    1
 1.23519082591084e-15    8    8    2    1
 0.6067462076438742    8    8    2    2
 -0.004141673064190093    8    8    3    1
 -1.576408424021469e-14    8    8    3    2
 0.5310121943663026    8    8    3    3
 -1.628101616039058e-14    8    8    4    1
 0.004265820408995657    8    8    4    2
 -2.339727161394083e-15    8    8    4    3
 0.4757739557014009    8    8    4    4
 0.4881063059057116    8    8    5    5
 0.01721849891808453    8    8    6    5
 0.4963907019018749    8    8    6    6
 0.002353854907295983    8    8    7    1
 9.242899005678639e-15    8    8    7    2
 0.02516004475018354    8    8    7    3
 0.4790288368451042    8    8    7    7
 0.4687846181522278    8    8    8    8
 7.019144861936979e-14    9    1    5    1
 -0.009011137428490482    9    1    5    2
 4.766781369316911e-14    9    1    5    3
 0.007746616182277135    9    1    5    4
 -5.529174216506971e-14    9    1    6    1
 0.007100438257654514    9    1    6    2
 -3.7563010224317e-14    9    1    6    3
 -0.006104042951791959    9    1    6    4
 -1.294564499002004e-14    9    1    7    5
 1.019080924247878e-14    9    1    7    6
 0.01059720204211562    9    1    9    1
 -0.009501148109151794    9    2    5    1
 -7.013640340126338e-14    9    2    5    2
 -0.01257414251001967    9    2    5    3
 2.909637888026865e-14    9    2    5    4
 0.007486548292179834    9    2    6    1
 5.528317102543321e-14    9    2    6    2
 0.009907952602416333    9    2    6    3
 -2.293870141138269e-14    9    2    6    4
 0.003558592507770639    9    2    7    5
 -0.00280403740216956    9    2    7    6
 -1.623004651528061e-15    9    2    9    1
 0.01103508372529166    9    2    9    2
 2.824655344027801e-14    9    3    5    1
 -0.007449882727353929    9    3    5    2
 0.02342148756882541    9    3    5    4
 -2.225734432153303e-14    9    3    6    1
 0.005870228120714006    9    3    6    2
 -0.01845525359085837    9    3    6    4
 1.616165968415517e-15    9    3    7    5
 -1.289766904388756e-15    9    3    7    6
 0.008582018810260857    9    3    9    1
 3.255722680707253e-14    9    3    9    2
 0.02700324326092796    9    3    9    3
 0.01090734055370385    9    4    5    1
 4.093654017689341e-14    9    4    5    2
 0.04904460814050846    9    4    5    3
 4.078757145069039e-15    9    4    5    4
 -0.008594575187802786    9    4    6    1
 -3.227780142386626e-14    9    4    6    2
 -0.03864531139781708    9    4    6    3
 -3.158633794029313e-15    9    4    6    4
 -0.02745470619156278    9    4    7    5
 0.02163327856690917    9    4    7    6
 4.834120898834588e-14    9    4    9    1
 -0.01264043422485233    9    4    9    2
 1.521179593110433e-15    9    4    9    3
 0.07029342347956148    9    4    9    4
 1.306200366799085e-12    9    5    1    1
 -0.1722997057165037    9    5    2    1
 -1.306075730921182e-12    9    5    2    2
 -2.904143924790699e-14    9    5    3    1
 0.007647897685238763    9    5    3    2
 -0.0007396826915370991    9    5    4    1
 -3.137596810064552e-15    9    5    4    2
 0.0533241017974285    9    5    4    3
 1.525013919600799e-14    9    5    4    4
 -1.467627741318612e-14    9    5    7    1
 0.003854321187677429    9    5    7    2
 3.588929513776537e-15    9    5    7    3
 -0.10214242682633    9    5    7    4
 -1.524802023470465e-14    9    5    7    7
 -0.05464165772699551    9    5    8    5
 -0.05643763646407248    9    5    8    6
 0.08225337646535952    9    5    9    5
 -1.029083453208321e-12    9    6    1    1
 0.1357657046028445    9    6    2    1
 1.029272225028417e-12    9    6    2    2
 2.287334970535112e-14    9    6    3    1
 -0.006026256479365825    9    6    3    2
 0.0005828422131161164    9    6    4    1
 2.475353030970139e-15    9    6    4    2
 -0.04201739186225578    9    6    4    3
 -1.200325292142253e-14    9    6    4    4
 1.156061668946858e-14    9    6    7    1
 -0.003037060508226825    9    6    7    2
 -2.850780751819538e-15    9    6    7    3
 0.08048440065671505    9    6    7    4
 1.209102703015062e-14    9    6    7    7
 0.03014770650846038    9    6    8    5
 0.0546416577269957    9    6    8    6
 -0.05464165772699569    9    6    9    5
 0.05596344650974756    9    6    9    6
 -1.837254975369474e-14    9    7    5    1
 0.005049513459238696    9    7    5    2
 3.495095697857689e-15    9    7    5    3
 -0.02692981754489364    9    7    5    4
 1.446345543680029e-14    9    7    6    1
 -0.003978827182810587    9    7    6    2
 -2.777357478165108e-15    9    7    6    3
 0.02121968600355145    9    7    6    4
 -4.005368085813199e-15    9    7    7    5
 3.192894082806874e-15    9    7    7    6
 -0.006365246117145999    9    7    9    1
 -2.505559987208515e-14    9    7    9    2
 -0.02103115508557115    9    7    9    3
 2.50435769304566e-15    9    7    9    4
 0.03754829333727965    9    7    9    7
 -0.0172184989180845    9    8    5    5
 -0.004142197998081463    9    8    6    5
 0.01721849891808479    9    8    6    6
 0.01787920915327404    9    8    9    8
 0.606698841324623    9    9    1    1
 0.6067462076438752    9    9    2    2
 -0.004141673064190106    9    9    3    1
 -1.572339656827227e-14    9    9    3    2
 0.5310121943663033    9    9    3    3
 -1.628981301137105e-14    9    9    4    1
 0.004265820408995685    9    9    4    2
 -2.112440639700392e-15    9    9    4    3
 0.4757739557014016    9    9    4    4
 0.4963907019018753    9    9    5    5
 -0.01721849891808474    9    9    6    5
 0.4881063059057126    9    9    6    6
 0.002353854907295993    9    9    7    1
 9.267088373971511e-15    9    9    7    2
 0.02516004475018359    9    9    7    3
 0.479028836845105    9    9    7    7
 0.4330261998456804    9    9    8    8
 0.4687846181522293    9    9    9    9
 1.233112587327488e-12   10    1    1    1
 -0.1070414340118853   10    1    2    1
 -3.890797545393976e-13   10    1    2    2
 -1.36630739739394e-13   10    1    3    1
 0.01802372809023175   10    1    3    2
 3.274785990477072e-14   10    1    3    3
 -0.01554270174394735   10    1    4    1
 2.910569954674017e-15   10    1    4    2
 0.002784209144872357   10    1    4    3
 1.318361381435346e-14   10    1    4    4
 1.210912710977296e-14   10    1    5    5
 1.210446236698353e-14   10    1    6    6
 4.639390013349111e-14   10    1    7    1
 -0.005891352911338359   10    1    7    2
 7.070123024359443e-15   10    1    7    3
 -0.001590560633602755   10    1    7    4
 1.201108304612827e-14   10    1    7    7
 -0.001001959514575154   10    1    8    5
 -0.001271582760949587   10    1    8    6
 7.731510913531071e-15   10    1    8    8
 0.001271582760949586   10    1    9    5
 -0.001001959514575162   10    1    9    6
 7.736199029135886e-15   10    1    9    9
 0.009551492495605217   10    1   10    1
 -0.108632555927238   10    2    1    1
 -3.972265674010334e-13   10    2    2    1
 -0.1088021099821829   10    2    2    2
 0.01793322627475739   10    2    3    1
 1.357957408274494e-13   10    2    3    2
 -0.007576581694813915   10    2    3    3
 2.855974816635655e-15   10    2    4    1
 -0.01564056857842188   10    2    4    2
 1.084051570027483e-14   10    2    4    3
 -0.003639932503935691   10    2    4    4
 -0.002866783217429442   10    2    5    5
 -0.002866783217429447   10    2    6    6
 -0.006030067925018603   10    2    7    1
 -4.416578144804634e-14   10    2    7    2
 -0.001296375300946299   10    2    7    3
 -7.95756960759314e-15   10    2    7    4
 -0.003264428521098179   10    2    7    7
 -4.15507692407566e-15   10    2    8    5
 -5.275534224286017e-15   10    2    8    6
 -0.002013176048580867   10    2    8    8
 5.276040749988475e-15   10    2    9    5
 -4.160160074671252e-15   10    2    9    6
 -0.002013176048580872   10    2    9    9
 -1.693926067897855e-15   10    2   10    1
 0.009583523994916736   10    2   10    2
 -7.533103610032118e-13   10    3    1    1
 0.09994597546077631   10    3    2    1
 7.619338916308588e-13   10    3    2    2
 2.019659938422291e-14   10    3    3    1
 -0.005168132548151963   10    3    3    2
 5.521733244251426e-15   10    3    3    3
 0.004168942624331865   10    3    4    1
 1.631940030058174e-14   10    3    4    2
 -0.0230456000105627   10    3    4    3
 -5.488668466122407e-15   10    3    4    4
 -4.597004082327856e-15   10    3    7    1
 0.00159509728686814   10    3    7    2
 2.050958144636517e-15   10    3    7    3
 0.03328661074770714   10    3    7    4
 6.703405192043377e-15   10    3    7    7
 0.02304471511419127   10    3    8    5
 0.02924595459590495   10    3    8    6
 -0.02924595459590494   10    3    9    5
 0.02304471511419135   10    3    9    6
 -0.002292272472879298   10    3   10    1
 -8.981676063020373e-15   10    3   10    2
 0.01617384334198324   10    3   10    3
 -0.1467583570560355   10    4    1    1
 1.851467994217794e-14   10    4    2    1
 -0.1468047105597686   10    4    2    2
 0.004686452727884398   10    4    3    1
 1.609626874062714e-14   10    4    3    2
 -0.1007354790365063   10    4    3    3
 1.382525821255753e-14   10    4    4    1
 -0.003593411149861694   10    4    4    2
 -1.557890101644421e-15   10    4    4    3
 -0.06335841438792142   10    4    4    4
 -0.0838192684620087   10    4    5    5
 -0.08381926846200879   10    4    6    6
 -0.001070003545472782   10    4    7    1
 -5.254626486532465e-15   10    4    7    2
 -0.01351185667663115   10    4    7    3
 4.611924991210214e-15   10    4    7    4
 -0.06403632061339094   10    4    7    7
 2.594278958323315e-15   10    4    8    5
 3.231681415527543e-15   10    4    8    6
 -0.06046241113154135   10    4    8    8
 -3.255262812779103e-15   10    4    9    5
 2.545788016158901e-15   10    4    9    6
 -0.06046241113154149   10    4    9    9
 -8.658577462872588e-15   10    4   10    1
 0.002096214481042064   10    4   10    2
 2.474799878915412e-15   10    4   10    3
 0.03519356313030694   10    4   10    4
 -2.412791376397251e-14   10    5    5    1
 0.006173372090616578   10    5    5    2
 -3.309289621058642e-15   10    5    5    3
 -0.01762247267299002   10    5    5    4
 0.003506909392954153   10    5    8    1
 1.289810263392845e-14   10    5    8    2
 0.009766488883520223   10    5    8    3
 2.184418298657208e-15   10    5    8    4
 -0.006707190505076721   10    5    8    7
 -0.004450604503899034   10    5    9    1
 -1.637699371782898e-14   10    5    9    2
 -0.01239461147744663   10    5    9    3
 -2.732283443019884e-15   10    5    9    4
 0.008512068298764146   10    5    9    7
 0.0110924018918889   10    5   10    5
 -2.411624535125914e-14   10    6    6    1
 0.006173372090616589   10    6    6    2
 -3.277292786899422e-15   10    6    6    3
 -0.01762247267299003   10    6    6    4
 0.004450604503899037   10    6    8    1
 1.637393286972728e-14   10    6    8    2
 0.01239461147744663   10    6    8    3
 2.742165033984018e-15   10    6    8    4
 -0.008512068298764148   10    6    8    7
 0.003506909392954171   10    6    9    1
 1.291225843019917e-14   10    6    9    2
 0.009766488883520261   10    6    9    3
 2.123560777892062e-15   10    6    9    4
 -0.006707190505076748   10    6    9    7
 0.01109240189188889   10    6   10    6
 2.840700862303299e-13   10    7    1    1
 -0.03467708653826939   10    7    2    1
 -2.416619417700331e-13   10    7    2    2
 -1.565394305337326e-14   10    7    3    1
 0.004006625775020827   10    7    3    2
 1.32412256072939e-14   10    7    3    3
 0.0001587606361632576   10    7    4    1
 0.003389158152810581   10    7    4    3
 7.51705826491228e-15   10    7    4    4
 9.046298324148772e-15   10    7    5    5
 9.008048010316662e-15   10    7    6    6
 -1.066960308624375e-14   10    7    7    1
 0.00284976253051751   10    7    7    2
 3.61115217589747e-15   10    7    7    3
 0.0006401705247550276   10    7    7    4
 9.884888046984841e-15   10    7    7    7
 -0.003248243837312519   10    7    8    5
 -0.004122333095103847   10    7    8    6
 6.259725946139785e-15   10    7    8    8
 0.00412233309510384   10    7    9    5
 -0.003248243837312559   10    7    9    6
 6.286351579803777e-15   10    7    9    9
 0.0006348523453621202   10    7   10    1
 3.1285958117808e-15   10    7   10    2
 -0.006209211391357646   10    7   10    3
 -7.470315598750998e-15   10    7   10    4
 0.02190842147980522   10    7   10    7
 0.004104814831459491   10    8    5    1
 1.523413335917082e-14   10    8    5    2
 0.0168868221016874   10    8    5    3
 0.005209403873755575   10    8    6    1
 1.933925478377022e-14   10    8    6    2
 0.02143099751972811   10    8    6    3
 1.187110135809962e-15   10    8    6    4
 -0.004046374112034852   10    8    7    5
 -0.005135236993480613   10    8    7    6
 -2.274142563183677e-14   10    8    8    1
 0.00588290091954062   10    8    8    2
 -0.01732420888074622   10    8    8    4
 -1.063889384258083e-15   10    8    8    7
 -2.205213008726892e-15   10    8   10    5
 -2.798969552225e-15   10    8   10    6
 0.01499044629986142   10    8   10    8
 -0.005209403873755572   10    9    5    1
 -1.9342309779808e-14   10    9    5    2
 -0.0214309975197281   10    9    5    3
 -1.171358238129545e-15   10    9    5    4
 0.004104814831459512   10    9    6    1
 1.524949058704244e-14   10    9    6    2
 0.01688682210168746   10    9    6    3
 0.005135236993480601   10    9    7    5
 -0.004046374112034878   10    9    7    6
 -2.275903621911001e-14   10    9    9    1
 0.005882900919540634   10    9    9    2
 -0.0173242088807463   10    9    9    4
 -1.015989853329485e-15   10    9    9    7
 2.773646655233886e-15   10    9   10    5
 -2.178101178151176e-15   10    9   10    6
 0.01499044629986146   10    9   10    9
 0.3900339039831438   10   10    1    1
 -3.249873650355492e-14   10   10    2    1
 0.3900713462468591   10   10    2    2
 -0.003642302146681569   10   10    3    1
 -1.13836891302288e-14   10   10    3    2
 0.3498613617741966   10   10    3    3
 -5.583146521059151e-15   10   10    4    1
 0.001593233958233475   10   10    4    2
 1.228260115143653e-14   10   10    4    3
 0.3602928229331336   10   10    4    4
 0.3364645629072371   10   10    5    5
 0.3364645629072373   10   10    6    6
 -0.0005416072498441019   10   10    7    1
 0.003436640554438312   10   10    7    3
 -3.62293948639146e-14   10   10    7    4
 0.3639131478174328   10   10    7    7
 -1.386824682869658e-14   10   10    8    5
 -1.753393437387007e-14   10   10    8    6
 0.331877088286656   10   10    8    8
 1.751159980911687e-14   10   10    9    5
 -1.380341153878195e-14   10   10    9    6
 0.3318770882866564   10   10    9    9
 3.080448764992971e-15   10   10   10    1
 -0.00134350496561452   10   10   10    2
 4.702835343373124e-15   10   10   10    3
 0.001726300427844279   10   10   10    4
 -6.094517251975518e-15   10   10   10    7
 0.348674037304171   10   10   10   10
 0.01152585458720503   11    1    1    1
 -1.092738756875182e-13   11    1    2    1
 0.01160064591036552   11    1    2    2
 -0.009184204495061753   11    1    3    1
 -0.01933897325502204   11    1    3    3
 1.796044553248224e-14   11    1    4    1
 -0.002854845127131316   11    1    4    2
 1.308196986068294e-14   11    1    4    3
 0.006237390468002066   11    1    4    4
 -0.00561756244270478   11    1    5    5
 -0.005617562442704779   11    1    6    6
 -0.009675572562298161   11    1    7    1
 -5.379809485807178e-15   11    1    7    2
 -0.01071593479110398   11    1    7    3
 -4.476405140660389e-14   11    1    7    4
 0.001930442348992205   11    1    7    7
 -1.074727600750697e-14   11    1    8    5
 -1.364125555135959e-14   11    1    8    6
 1.419278982957694e-05   11    1    8    8
 1.363188397883117e-14   11    1    9    5
 -1.073664743808482e-14   11    1    9    6
 1.419278982957972e-05   11    1    9    9
 7.675339288359191e-15   11    1   10    1
 -0.000932200425778241   11    1   10    2
 -2.31643182283317e-15   11    1   10    3
 -0.0007164025011901097   11    1   10    4
 9.246896054849324e-15   11    1   10    7
 0.0009329955697657703   11    1   10   10
 0.007646494641567352   11    1   11    1
 -1.585584401043761e-13   11    2    1    1
 0.02448259167011051   11    2    2    1
 2.12905200421683e-13   11    2    2    2
 -0.008479391771002093   11    2    3    2
 -7.488520708479746e-14   11    2    3    3
 -0.002334193523343481   11    2    4    1
 -2.148514232600289e-14   11    2    4    2
 -0.003120755708599878   11    2    4    3
 2.142432959555476e-14   11    2    4    4
 -2.189966415676314e-14   11    2    5    5
 -2.189367732789195e-14   11    2    6    6
 -5.383157171772964e-15   11    2    7    1
 -0.008610614272502351   11    2    7    2
 -4.124351650946958e-14   11    2    7    3
 0.01189737733938023   11    2    7    4
 8.644282934854725e-15   11    2    7    7
 0.002796490278569564   11    2    8    5
 0.003549014483783748   11    2    8    6
 -0.003549014483783747   11    2    9    5
 0.002796490278569576   11    2    9    6
 -0.001023178067012674   11    2   10    1
 -7.0199286989381e-15   11    2   10    2
 0.0003332515805454459   11    2   10    3
 -1.496427696925755e-15   11    2   10    4
 -0.002437253548073758   11    2   10    7
 2.474027384867516e-15   11    2   10   10
 2.660091300742606e-15   11    2   11    1
 0.006952913814448129   11    2   11    2
 -0.1090750529038693   11    3    1    1
 1.36546725532441e-14   11    3    2    1
 -0.1089964877118895   11    3    2    2
 -0.003299068426089879   11    3    3    1
 -1.327329088654516e-14   11    3    3    2
 -0.09410687308930103   11    3    3    3
 3.00240475859556e-14   11    3    4    1
 -0.007549664066302062   11    3    4    2
 -0.02335559437472227   11    3    4    4
 -0.03570948882826484   11    3    5    5
 -0.03570948882826488   11    3    6    6
 -0.0110694125253266   11    3    7    1
 -4.234264848468339e-14   11    3    7    2
 -0.04056433468449522   11    3    7    3
 6.532534929659661e-15   11    3    7    4
 -0.04433039617384489   11    3    7    7
 3.209130010339845e-15   11    3    8    5
 4.047462235159949e-15   11    3    8    6
 -0.02112043424781666   11    3    8    8
 -4.058670175118018e-15   11    3    9    5