 &FCI NORB=  28,NELEC=14,MS2=0,
  ORBSYM=1,1,1,1,1,1,1,1,1,1,1,1,1,1,1,1,1,1,1,1,1,1,1,1,1,1,1,1,
  ISYM=1,
 &END
 2.282491152079636    1    1    1    1
 -6.797732584043947e-11    1    1    2    1
 2.282929905284254    1    1    2    2
 -0.1935946545602128    1    1    3    1
 3.847394652216687e-12    1    1    3    2
 0.7892845499988901    1    1    3    3
 -1.026828665667931e-11    1    1    4    1
 0.1894201011134959    1    1    4    2
 7.115245025113293e-12    1    1    4    3
 0.6599946554047436    1    1    4    4
 -0.0713862036833917    1    1    5    1
 7.914080903202031e-13    1    1    5    2
 -0.08310346974789388    1    1    5    3
 9.187543521110841e-12    1    1    5    4
 0.683243454233172    1    1    5    5
 0.6575703513954544    1    1    6    6
 0.6575703513954537    1    1    7    7
 7.180013528174101e-12    1    1    8    6
 -5.724904925119567e-12    1    1    8    7
 0.6203398638710678    1    1    8    8
 -5.725106478303432e-12    1    1    9    6
 -7.179706048437984e-12    1    1    9    7
 0.6203398638710677    1    1    9    9
 6.918644527594128e-12    1    1   10    1
 -0.1220550441955197    1    1   10    2
 -5.922057982887807e-12    1    1   10    3
 -0.1238899093792078    1    1   10    4
 2.188226162769258e-12    1    1   10    5
 0.4727192428076543    1    1   10   10
 0.005058548724551026    1    1   11    1
 -4.657140287561007e-13    1    1   11    2
 -0.09191178939378801    1    1   11    3
 1.494418304381906e-12    1    1   11    4
 0.1771155493513936    1    1   11    5
 -6.486590778398416e-13    1    1   11   10
 0.5039774880875378    1    1   11   11
 -0.1016883613549167    1    1   12    6
 0.2112511528892342    1    1   12    7
 -5.528811566554714e-12    1    1   12    8
 -2.66374422519533e-12    1    1   12    9
 0.5957394357866501    1    1   12   12
 0.211251152889234    1    1   13    6
 0.1016883613549165    1    1   13    7
 2.665652692069448e-12    1    1   13    8
 -5.53202028998924e-12    1    1   13    9
 0.5957394357866492    1    1   13   13
 -0.164330433641133    1    1   14    1
 2.867946982329506e-12    1    1   14    2
 0.147756450031401    1    1   14    3
 6.792524008536471e-12    1    1   14    4
 0.1416624455777744    1    1   14    5
 -1.096672697797149e-15    1    1   14    9
 -3.085278560410742e-12    1    1   14   10
 -0.008005507625483594    1    1   14   11
 0.5624008820118375    1    1   14   14
 6.759314042184029e-13    1    1   15    1
 -0.00017984726571836    1    1   15    2
 -4.716370523294433e-12    1    1   15    3
 0.1068662925047861    1    1   15    4
 9.495538036419227e-12    1    1   15    5
 2.251280518987826e-15    1    1   15    8
 0.1780479432398672    1    1   15   10
 6.364579002715587e-12    1    1   15   11
 5.4860595233297e-12    1    1   15   14
 0.7521384574236217    1    1   15   15
 -4.224561266129648e-12    1    1   16    6
 5.78326758227457e-12    1    1   16    7
 -0.2491990759018345    1    1   16    8
 -0.06808619905228791    1    1   16    9
 1.558649883353176e-15    1    1   16   10
 9.438812578754785e-12    1    1   16   12
 -1.740332812756595e-12    1    1   16   13
 1.179775750628178e-15    1    1   16   15
 0.6146217534560915    1    1   16   16
 5.779996645964135e-12    1    1   17    6
 4.223628364370333e-12    1    1   17    7
 0.06808619905228788    1    1   17    8
 -0.2491990759018343    1    1   17    9
 1.740101986114073e-12    1    1   17   12
 9.438632838363378e-12    1    1   17   13
 0.6146217534560897    1    1   17   17
 -8.978735564850573e-12    1    1   18    1
 0.1604897831923043    1    1   18    2
 6.165653165975116e-12    1    1   18    3
 0.1495121631319338    1    1   18    4
 2.549685722968986e-14    1    1   18    5
 -0.1623177689111165    1    1   18   10
 -1.583620387601847e-12    1    1   18   11
 5.978013223328915e-12    1    1   18   14
 -0.07781286331447149    1    1   18   15
 0.5536599676181668    1    1   18   18
 0.002285475806374977    1    1   19    6
 -0.008410830443825817    1    1   19    7
 3.83566355760534e-12    1    1   19    8
 2.810349175597082e-12    1    1   19    9
 -0.03728564888464177    1    1   19   12
 -0.006912161014304957    1    1   19   13
 -2.641480784104644e-12    1    1   19   16
 -1.011269193385012e-12    1    1   19   17
 0.6225764354803762    1    1   19   19
 -0.008410830443825741    1    1   20    6
 -0.002285475806375197    1    1   20    7
 -2.8103851168991e-12    1    1   20    8
 3.835477020621564e-12    1    1   20    9
 0.006912161014304854    1    1   20   12
 -0.03728564888464172    1    1   20   13
 1.011326439259719e-12    1    1   20   16
 -2.641062498906499e-12    1    1   20   17
 0.6225764354803768    1    1   20   20
 1.163896660237244e-14    1    1   21    6
 -1.900613777824808e-15    1    1   21    7
 1.010587993535056e-15    1    1   21   10
 -2.952227957058652e-14    1    1   21   12
 4.18806241249664e-14    1    1   21   13
 2.229916175764868e-14    1    1   21   19
 -4.84586205181405e-14    1    1   21   20
 0.5831242784051809    1    1   21   21
 2.98769093670336e-15    1    1   22    6
 -2.460476747893647e-15    1    1   22    7
 -1.553772028227002e-14    1    1   22   12
 7.166613462075081e-15    1    1   22   13
 1.451136388582843e-14    1    1   22   19
 -1.033503603323212e-14    1    1   22   20
 0.5831242784051806    1    1   22   22
 -6.974393285119618e-12    1    1   23   21
 -4.155842336928117e-13    1    1   23   22
 0.5785974557788673    1    1   23   23
 4.155911725867156e-13    1    1   24   21
 -6.974542471338552e-12    1    1   24   22
 0.5785974557788677    1    1   24   24
 0.04682452556839584    1    1   25    1
 -9.69023526784657e-13    1    1   25    2
 -0.03248659819080876    1    1   25    3
 -7.733752874217181e-13    1    1   25    4
 0.00569069608279962    1    1   25    5
 4.057969238413506e-12    1    1   25   10
 -0.02024384885770843    1    1   25   11
 0.005965191170679267    1    1   25   14
 6.091571691513309e-12    1    1   25   15
 -2.367848972451014e-12    1    1   25   18
 0.6428577746686045    1    1   25   25
 -8.565760947765177e-13    1    1   26    6
 6.737787411337237e-13    1    1   26    7
 -0.03087612084615688    1    1   26    8
 0.0002087562114491809    1    1   26    9
 1.563242590929548e-12    1    1   26   12
 -7.665743040341511e-13    1    1   26   13
 0.0685881622691395    1    1   26   16
 -0.01923893538927332    1    1   26   17
 5.006967063181378e-12    1    1   26   19
 -3.721037367121482e-12    1    1   26   20
 0.5921390217147529    1    1   26   26
 6.734946801645325e-13    1    1   27    6
 8.56632473289487e-13    1    1   27    7
 -0.0002087562114491482    1    1   27    8
 -0.0308761208461565    1    1   27    9
 7.662481760206674e-13    1    1   27   12
 1.563857550401782e-12    1    1   27   13
 0.01923893538927377    1    1   27   16
 0.06858816226913921    1    1   27   17
 3.720995733758059e-12    1    1   27   19
 5.006943644414452e-12    1    1   27   20
 0.592139021714754    1    1   27   27
 -3.582688233404316e-12    1    1   28    1
 0.05612408156410018    1    1   28    2
 3.936793599446098e-12    1    1   28    3
 -0.02468881430557647    1    1   28    4
 -4.100626956049513e-12    1    1   28    5
 -0.04906547124875701    1    1   28   10
 -6.122789775186988e-12    1    1   28   11
 5.540533309922324e-14    1    1   28   14
 -0.2115989954678116    1    1   28   15
 -1.728900376269801e-15    1    1   28   16
 0.119899880176919    1    1   28   18
 3.332417675139254e-12    1    1   28   25
 0.711506448396427    1    1   28   28
 -6.797702379950191e-11    2    1    1    1
 1.841812703954735    2    1    2    1
 6.796078086954756e-11    2    1    2    2
 3.712355962120681e-12    2    1    3    1
 -0.2009763295770549    2    1    3    2
 -6.549448483550435e-15    2    1    3    3
 0.183449864440763    2    1    4    1
 3.38160425158193e-12    2    1    4    2
 -0.1930021724272644    2    1    4    3
 -3.358267440176088e-14    2    1    4    4
 1.047659031535729e-12    2    1    5    1
 -0.05753123534471392    2    1    5    2
 1.28499641482982e-14    2    1    5    3
 -0.2488686643609743    2    1    5    4
 3.195057066140983e-14    2    1    5    5
 -6.273681660978747e-15    2    1    6    6
 -1.290070648596924e-15    2    1    7    4
 1.565949765377132e-15    2    1    7    5
 -7.267624002604833e-15    2    1    7    7
 -0.1945148282114446    2    1    8    6
 0.1550981418909997    2    1    8    7
 1.6473909909831e-15    2    1    8    8
 1.205532166453838e-15    2    1    9    4
 -1.281346707511225e-15    2    1    9    5
 0.1550981418910002    2    1    9    6
 0.1945148282114443    2    1    9    7
 1.014162712142941e-15    2    1    9    9
 -0.1263717381077965    2    1   10    1
 -2.327488757145535e-12    2    1   10    2
 0.1603370415702614    2    1   10    3
 -2.938458937978838e-15    2    1   10    4
 -0.05902695793370193    2    1   10    5
 -3.008877869081772e-15    2    1   10   10
 -2.793547982320828e-13    2    1   11    1
 0.0152278649559945    2    1   11    2
 4.748371834617515e-15    2    1   11    3
 -0.03984215819457668    2    1   11    4
 -1.477323038207023e-14    2    1   11    5
 0.01783449617822453    2    1   11   10
 -2.352631978119746e-14    2    1   11   11
 7.50023746112923e-15    2    1   12    6
 -1.524933150809588e-14    2    1   12    7
 0.1493846378321469    2    1   12    8
 0.07198443285167112    2    1   12    9
 -3.94191057969057e-14    2    1   12   12
 -1.648094965359519e-14    2    1   13    6
 -8.143419965286403e-15    2    1   13    7
 -0.07198443285167135    2    1   13    8
 0.1493846378321468    2    1   13    9
 -4.513570992916173e-14    2    1   13   13
 2.942867721811166e-12    2    1   14    1
 -0.1599752647751317    2    1   14    2
 5.345512444146494e-14    2    1   14    3
 -0.1827149744772761    2    1   14    4
 -9.466944372524266e-14    2    1   14    5
 0.08557621050274111    2    1   14   10
 -8.272766152672695e-14    2    1   14   11
 -1.02207949359397e-15    2    1   14   12
 -1.166062689114677e-13    2    1   14   14
 -0.01638513340832908    2    1   15    1
 -2.368514032228012e-13    2    1   15    2
 0.1263390636349225    2    1   15    3
 5.793764990338901e-14    2    1   15    4
 -0.2593835103390608    2    1   15    5
 -1.043036402471019e-15    2    1   15    6
 -3.579542261558655e-14    2    1   15   10
 -0.1720476359832308    2    1   15   11
 1.176512920355407e-15    2    1   15   12
 -1.074857453962405e-15    2    1   15   13
 -0.1464571094571375    2    1   15   14
 1.456035812752443e-13    2    1   15   15
 -1.520586072400743e-15    2    1   16    5
 0.1147365923092045    2    1   16    6
 -0.1570482671828284    2    1   16    7
 -1.299820169033128e-14    2    1   16    8
 -3.632416091005342e-15    2    1   16    9
 -0.2557882915336916    2    1   16   12
 0.04716178365083344    2    1   16   13
 -1.059457545307021e-15    2    1   16   14
 4.183459134665668e-14    2    1   16   16
 -0.1570482671828282    2    1   17    6
 -0.1147365923092045    2    1   17    7
 3.937253084326797e-15    2    1   17    8
 -1.390395773775283e-14    2    1   17    9
 -0.04716178365083366    2    1   17   12
 -0.2557882915336909    2    1   17   13
 -1.012184043178155e-15    2    1   17   16
 4.738602495417063e-14    2    1   17   17
 0.1630961210528604    2    1   18    1
 3.009395318121118e-12    2    1   18    2
 -0.1670140691238532    2    1   18    3
 1.33394814291754e-15    2    1   18    4
 -0.001026535666382253    2    1   18    5
 2.221313410988301e-15    2    1   18   10
 0.04283981385324467    2    1   18   11
 -0.1629902300653301    2    1   18   14
 6.278137731907663e-14    2    1   18   15
 3.319393371281622e-15    2    1   18   18
 -0.1039567448034936    2    1   19    8
 -0.07617027477844981    2    1   19    9
 3.4035274598665e-15    2    1   19   12
 0.07170446450345443    2    1   19   16
 0.02745192453930733    2    1   19   17
 -1.9428902930604e-15    2    1   19   19
 0.07617027477844947    2    1   20    8
 -0.1039567448034936    2    1   20    9
 3.758671433991266e-15    2    1   20   13
 -0.02745192453930699    2    1   20   16
 0.07170446450345416    2    1   20   17
 -1.856316749489732e-15    2    1   20   20
 1.010169080732137e-15    2    1   21    3
 -1.519746185510124e-13    2    1   21    8
 8.469756853758064e-14    2    1   21    9
 7.399103489683912e-14    2    1   21   16
 -7.25665318740582e-14    2    1   21   17
 -1.050548537051554e-14    2    1   21   21
 -5.83432038530537e-14    2    1   22    8
 3.361962318437472e-14    2    1   22   16
 -8.649362296597543e-15    2    1   22   17
 -1.218643241873707e-14    2    1   22   22
 1.331116125959562e-15    2    1   23   18
 -1.103796752690867e-13    2    1   23   19
 2.348839840887671e-13    2    1   23   20
 0.1889936996650888    2    1   23   21
 0.01126081514122188    2    1   23   22
 1.054711873393899e-14    2    1   23   23
 -6.349512298543163e-14    2    1   24   19
 3.531820216647184e-14    2    1   24   20
 -0.0112608151412219    2    1   24   21
 0.1889936996650888    2    1   24   22
 1.208755318060639e-14    2    1   24   24
 -9.175530496665198e-13    2    1   25    1
 0.04963783375717874    2    1   25    2
 2.006641380836172e-15    2    1   25    3
 0.02093310245286684    2    1   25    4
 -1.971946911316636e-15    2    1   25    5
 -0.1099159392085416    2    1   25   10
 -8.153200337090993e-15    2    1   25   11
 -6.789881157320821e-14    2    1   25   14
 -0.1651181817433932    2    1   25   15
 -1.345165547359727e-15    2    1   25   16
 0.0642130838223777    2    1   25   18
 1.170222952291294e-15    2    1   25   19
 1.678472609612063e-15    2    1   25   20
 1.776356839400257e-15    2    1   25   25
 0.02320592269049616    2    1   26    6
 -0.01824817695781097    2    1   26    7
 -0.04221729512422864    2    1   26   12
 0.0206962402538745    2    1   26   13
 3.644654023027272e-15    2    1   26   16
 -1.461938209379454e-15    2    1   26   17
 -0.1356720762469309    2    1   26   19
 0.1008252261693051    2    1   26   20
 -1.999366120704478e-13    2    1   26   21
 -7.622053664180744e-14    2    1   26   22
 3.969047313034935e-15    2    1   26   26
 -0.0182481769578105    2    1   27    6
 -0.02320592269049637    2    1   27    7
 -1.279655537935812e-15    2    1   27   10
 -0.02069624025387492    2    1   27   12
 -0.0422172951242284    2    1   27   13
 -1.874105727530435e-15    2    1   27   15
 4.312305720843845e-15    2    1   27   17
 -0.100825226169305    2    1   27   19
 -0.1356720762469313    2    1   27   20
 1.09888263858336e-13    2    1   27   21
 -2.087663302321483e-15    2    1   27   22
 4.135580766728708e-15    2    1   27   27
 0.06901755024485283    2    1   28    1
 1.272824646245466e-12    2    1   28    2
 -0.1066696756200828    2    1   28    3
 9.170181974882397e-15    2    1   28    4
 0.1111450358121597    2    1   28    5
 0.1655574156437068    2    1   28   11
 -0.003851655691244126    2    1   28   14
 -1.225408663430017e-14    2    1   28   15
 -2.990663272584015e-15    2    1   28   18
 -0.09030693447439148    2    1   28   25
 -1.228726149163403e-15    2    1   28   27
 3.358424649491099e-15    2    1   28   28
 2.282929905284253    2    2    1    1
 6.796073497052622e-11    2    2    2    1
 2.283368825516128    2    2    2    2
 -0.1936620957590112    2    2    3    1
 -1.098714717297222e-11    2    2    3    2
 0.7892576460118809    2    2    3    3
 3.270292477303757e-12    2    2    4    1
 0.189480004446738    2    2    4    2
 -7.12952700349101e-12    2    2    4    3
 0.6600276673729517    2    2    4    4
 -0.07140316961267504    2    2    5    1
 -3.455088320482302e-12    2    2    5    2
 -0.08307063286780297    2    2    5    3
 -9.180562993843511e-12    2    2    5    4
 0.6832585902604382    2    2    5    5
 0.6575716952753793    2    2    6    6
 0.6575716952753785    2    2    7    7
 -7.176341985937196e-12    2    2    8    6
 5.722304574629078e-12    2    2    8    7
 0.6203547988385275    2    2    8    8
 5.722084156327412e-12    2    2    9    6
 7.176639924694195e-12    2    2    9    7
 0.6203547988385276    2    2    9    9
 -2.40715894482893e-12    2    2   10    1
 -0.1220979783862545    2    2   10    2
 5.911659183011064e-12    2    2   10    3
 -0.1238934293309791    2    2   10    4
 -2.168788586220938e-12    2    2   10    5
 0.4727238008785238    2    2   10   10
 0.005064597165522117    2    2   11    1
 6.581721658568268e-13    2    2   11    2
 -0.09189860632492039    2    2   11    3
 -1.446341744287816e-12    2    2   11    4
 0.1771137337841054    2    2   11    5
 6.684756914676626e-13    2    2   11   10
 0.5039737331728678    2    2   11   11
 -0.1016934975632882    2    2   12    6
 0.2112618230379662    2    2   12    7
 5.496624422979268e-12    2    2   12    8
 2.649125385202622e-12    2    2   12    9
 0.5957535413467789    2    2   12   12
 0.2112618230379659    2    2   13    6
 0.1016934975632881    2    2   13    7
 -2.647237626589999e-12    2    2   13    8
 5.493517194420615e-12    2    2   13    9
 0.5957535413467779    2    2   13   13
 -0.1643829974100116    2    2   14    1
 -8.939793783718786e-12    2    2   14    2
 0.1477643303823158    2    2   14    3
 -6.692967360888424e-12    2    2   14    4
 0.1416902306010375    2    2   14    5
 -1.095329083152774e-15    2    2   14    9
 3.230826196853887e-12    2    2   14   10
 -0.007987472765526103    2    2   14   11
 0.5624208011623193    2    2   14   14
 -5.333325063050856e-13    2    2   15    1
 -0.0001870603571480325    2    2   15    2
 4.608424752916562e-12    2    2   15    3
 0.1068909472427377    2    2   15    4
 -9.648675955431507e-12    2    2   15    5
 2.249483515649305e-15    2    2   15    8
 0.1780425761488784    2    2   15   10
 -6.333926438895077e-12    2    2   15   11
 -5.323543689206289e-12    2    2   15   14
 0.7521631538098241    2    2   15   15
 4.243753894302149e-12    2    2   16    6
 -5.807982133426703e-12    2    2   16    7
 -0.2492162484555139    2    2   16    8
 -0.06809089093930164    2    2   16    9
 1.563807913299951e-15    2    2   16   10
 -9.440155905246495e-12    2    2   16   12
 1.740512004270653e-12    2    2   16   13
 1.180214771749654e-15    2    2   16   15
 0.6146455045156178    2    2   16   16
 -5.811234570537571e-12    2    2   17    6
 -4.244729622047277e-12    2    2   17    7
 0.06809089093930167    2    2   17    8
 -0.2492162484555138    2    2   17    9
 -1.740761831556248e-12    2    2   17   12
 -9.440202796990455e-12    2    2   17   13
 0.6146455045156163    2    2   17   17
 3.057453568327504e-12    2    2   18    1
 0.160543827384798    2    2   18    2
 -6.161628932771501e-12    2    2   18    3
 0.1495266668220154    2    2   18    4
 -5.140018185384454e-14    2    2   18    5
 -0.1623209324036221    2    2   18   10
 1.578878087299396e-12    2    2   18   11
 -6.049293444637671e-12    2    2   18   14
 -0.07780138883880901    2    2   18   15
 0.5536651202587152    2    2   18   18
 0.002292928037001025    2    2   19    6
 -0.008438255563815781    2    2   19    7
 -3.836975008553178e-12    2    2   19    8
 -2.811482383707764e-12    2    2   19    9
 -0.03730340448555643    2    2   19   12
 -0.006915452617806549    2    2   19   13
 2.650792779723687e-12    2    2   19   16
 1.014868744597663e-12    2    2   19   17
 0.6225682398591872    2    2   19   19
 -0.008438255563815718    2    2   20    6
 -0.002292928037001247    2    2   20    7
 2.811446876086615e-12    2    2   20    8
 -3.837159106082066e-12    2    2   20    9
 0.006915452617806446    2    2   20   12
 -0.03730340448555636    2    2   20   13
 -1.014810197680349e-12    2    2   20   16
 2.651231176872132e-12    2    2   20   17
 0.6225682398591877    2    2   20   20
 1.167945502659227e-14    2    2   21    6
 -1.913469965712294e-15    2    2   21    7
 1.010607552073366e-15    2    2   21   10
 -2.953925452956943e-14    2    2   21   12
 4.19003654671078e-14    2    2   21   13
 2.229891335980688e-14    2    2   21   19
 -4.845689715356105e-14    2    2   21   20
 0.5831175407072415    2    2   21   21
 2.99103501323121e-15    2    2   22    6
 -2.471299615345369e-15    2    2   22    7
 -1.554493817221662e-14    2    2   22   12
 7.167089717620459e-15    2    2   22   13
 1.451088897849213e-14    2    2   22   19
 -1.033408005364748e-14    2    2   22   20
 0.5831175407072413    2    2   22   22
 6.974559818573312e-12    2    2   23   21
 4.155217836476766e-13    2    2   23   22
 0.5785972819211875    2    2   23   23
 -4.155079058598687e-13    2    2   24   21
 6.974381142055286e-12    2    2   24   22
 0.5785972819211879    2    2   24   24
 0.04683942847425047    2    2   25    1
 2.694433218208836e-12    2    2   25    2
 -0.03251552982201359    2    2   25    3
 7.715477562397766e-13    2    2   25    4
 0.005716921975088813    2    2   25    5
 -4.054492852567648e-12    2    2   25   10
 -0.02022954331134368    2    2   25   11
 0.0059643927554341    2    2   25   14
 -6.095526861038536e-12    2    2   25   15
 2.371478013962758e-12    2    2   25   18
 0.6428534266956817    2    2   25   25
 8.561155256936459e-13    2    2   26    6
 -6.730154628042939e-13    2    2   26    7
 -0.03086407554505067    2    2   26    8
 0.0002086747720922866    2    2   26    9
 -1.552664247173041e-12    2    2   26   12
 7.609347180137505e-13    2    2   26   13
 0.06858327864722141    2    2   26   16
 -0.01923756553646728    2    2   26   17
 -5.006717263000837e-12    2    2   26   19
 3.720660932127196e-12    2    2   26   20
 0.5921391677175932    2    2   26   26
 -6.733294477534457e-13    2    2   27    6
 -8.560764944154364e-13    2    2   27    7
 -0.0002086747720923027    2    2   27    8
 -0.03086407554505028    2    2   27    9
 -7.612209473872866e-13    2    2   27   12
 -1.55208463269163e-12    2    2   27   13
 0.01923756553646767    2    2   27   16
 0.06858327864722116    2    2   27   17
 -3.720690422426287e-12    2    2   27   19
 -5.006762365811213e-12    2    2   27   20
 0.5921391677175942    2    2   27   27
 1.510860491213796e-12    2    2   28    1
 0.05614933689356532    2    2   28    2
 -3.936080628097471e-12    2    2   28    3
 -0.02469001907352186    2    2   28    4
 4.103059038362833e-12    2    2   28    5
 -0.04906017339312321    2    2   28   10
 6.096168708724647e-12    2    2   28   11
 -2.304632179539468e-13    2    2   28   14
 -0.2115993960827551    2    2   28   15
 -1.7282951823325e-15    2    2   28   16
 0.1198921631139155    2    2   28   18
 -3.332417675139254e-12    2    2   28   25
 0.7115143345804125    2    2   28   28
 -0.1935946545602128    3    1    1    1
 3.712375597297311e-12    3    1    2    1
 -0.1936620957590113    3    1    2    2
 0.03315849476043286    3    1    3    1
 3.333709075123165e-15    3    1    3    2
 0.002972066133127197    3    1    3    3
 9.612049914414272e-13    3    1    4    1
 -0.02593710763376297    3    1    4    2
 -1.579120135434403e-13    3    1    4    3
 -0.01215500769493546    3    1    4    4
 0.003465653237961315    3    1    5    1
 -6.756458253661703e-15    3    1    5    2
 -0.0080417596990761    3    1    5    3
 -2.472374247605019e-13    3    1    5    4
 -0.007836996124459709    3    1    5    5
 -0.0008740966831700406    3    1    6    6
 -0.0008740966831700307    3    1    7    7
 -1.082829640297774e-13    3    1    8    6
 8.634324537900445e-14    3    1    8    7
 -0.004340178310418657    3    1    8    8
 8.633713318925706e-14    3    1    9    6
 1.08279243861073e-13    3    1    9    7
 -0.004340178310418659    3    1    9    9
 -8.065247660198135e-13    3    1   10    1
 0.02190474599171417    3    1   10    2
 7.809954295963113e-14    3    1   10    3
 0.00186167813371659    3    1   10    4
 -1.330548152667262e-15    3    1   10    5
 -0.002047452350927794    3    1   10   10
 -0.006927604309023698    3    1   11    1
 -6.301601560986143e-15    3    1   11    2
 -0.002202857208550604    3    1   11    3
 -5.54478270481211e-14    3    1   11    4
 -0.001645647489971746    3    1   11    5
 2.580182974828288e-14    3    1   11   10
 -0.0007595132169658541    3    1   11   11
 0.001681698134062392    3    1   12    6
 -0.003493621737028576    3    1   12    7
 1.07304024335713e-13    3    1   12    8
 5.169772419942424e-14    3    1   12    9
 -0.004800615282591984    3    1   12   12
 -0.003493621737028582    3    1   13    6
 -0.001681698134062386    3    1   13    7
 -5.173447399439029e-14    3    1   13    8
 1.073672481454455e-13    3    1   13    9
 -0.004800615282591972    3    1   13   13
 0.02229660322391126    3    1   14    1
 1.729143328799414e-15    3    1   14    2
 -0.004257557032860961    3    1   14    3
 -2.171415462395203e-13    3    1   14    4
 -0.009645036896249822    3    1   14    5
 7.23344995012809e-14    3    1   14   10
 -0.005448607434967757    3    1   14   11
 -0.00834522101964698    3    1   14   14
 -3.884309473791287e-13    3    1   15    1
 0.01055767271445095    3    1   15    2
 -4.922399835828595e-15    3    1   15    3
 -0.009143532134057011    3    1   15    4
 -2.128638723077579e-13    3    1   15    5
 0.001117625189651828    3    1   15   10
 -1.29064863180553e-13    3    1   15   11
 -1.825753225903962e-13    3    1   15   14
 -0.01086358048795408    3    1   15   15
 7.68885552015347e-14    3    1   16    6
 -1.052556072899183e-13    3    1   16    7
 0.00535323091639534    3    1   16    8
 0.001462610342464242    3    1   16    9
 -1.826521789718982e-13    3    1   16   12
 3.368069983068073e-14    3    1   16   13
 -0.007578127776182598    3    1   16   16
 -1.051988831875066e-13    3    1   17    6
 -7.687337975925169e-14    3    1   17    7
 -0.001462610342464238    3    1   17    8
 0.005353230916395333    3    1   17    9
 -3.367228371131681e-14    3    1   17   12
 -1.826801835752003e-13    3    1   17   13
 -0.007578127776182571    3    1   17   17
 9.633848305458977e-13    3    1   18    1
 -0.02614340199659516    3    1   18    2
 -9.453874315334954e-14    3    1   18    3
 -0.005668391294439268    3    1   18    4
 -7.185494332786341e-14    3    1   18    5
 0.001762578860604135    3    1   18   10
 -1.175975820628256e-14    3    1   18   11
 -1.328527403105656e-13    3    1   18   14
 -0.003488702690626724    3    1   18   15
 -0.002624654204851712    3    1   18   18
 -0.002008848332342206    3    1   19    6
 0.007392807512362314    3    1   19    7
 -1.013143358812897e-13    3    1   19    8
 -7.423382519583174e-14    3    1   19    9
 0.005336377221341367    3    1   19   12
 0.000989278708843236    3    1   19   13
 9.425637625005284e-14    3    1   19   16
 3.607634278660933e-14    3    1   19   17
 0.0002401439661057674    3    1   19   19
 0.00739280751236232    3    1   20    6
 0.002008848332342211    3    1   20    7
 7.424396841537511e-14    3    1   20    8
 -1.013344984418079e-13    3    1   20    9
 -0.0009892787088432299    3    1   20   12
 0.005336377221341358    3    1   20   13
 -3.607714153867859e-14    3    1   20   16
 9.419238756956899e-14    3    1   20   17
 0.0002401439661057747    3    1   20   20
 -1.020310031234874e-14    3    1   21    6
 1.703170140900759e-15    3    1   21    7
 4.216567558783768e-15    3    1   21   12
 -5.99092672022795e-15    3    1   21   13
 -1.05526540275985e-15    3    1   21   19
 2.306665056418159e-15    3    1   21   20
 0.002120679405184461    3    1   21   21
 -2.663802764390981e-15    3    1   22    6
 2.206196488535696e-15    3    1   22    7
 2.22684409465101e-15    3    1   22   12
 -1.028411219551216e-15    3    1   22   13
 0.00212067940518445    3    1   22   22
 6.424385762954232e-14    3    1   23   21
 3.826799988004836e-15    3    1   23   22
 0.0007050307611438239    3    1   23   23
 -3.828900629714027e-15    3    1   24   21
 6.424568044444481e-14    3    1   24   22
 0.0007050307611438083    3    1   24   24
 -0.01054856254857775    3    1   25    1
 0.005659566120861411    3    1   25    3
 -2.899068517799724e-14    3    1   25    4
 -0.007322683202406992    3    1   25    5
 -7.514469054599113e-14    3    1   25   10
 -0.003875343846866052    3    1   25   11
 -0.001227305571090251    3    1   25   14
 -1.583972753307905e-13    3    1   25   15
 4.351879100139566e-14    3    1   25   18
 -0.001198334660621543    3    1   25   25
 -3.223653237253467e-14    3    1   26    6
 2.534834186085008e-14    3    1   26    7
 -0.00395956951763891    3    1   26    8
 2.677100324844752e-05    3    1   26    9
 1.017443778967425e-14    3    1   26   12
 -4.998819148329878e-15    3    1   26   13
 0.002039369446218615    3    1   26   16
 -0.0005720418176054756    3    1   26   17
 -6.331756950347933e-14    3    1   26   19
 4.705473342784053e-14    3    1   26   20
 -0.000193502304435704    3    1   26   26
 2.533502480885335e-14    3    1   27    6
 3.223386591281671e-14    3    1   27    7
 -2.677100324843604e-05    3    1   27    8
 -0.003959569517638915    3    1   27    9
 4.987980514736812e-15    3    1   27   12
 1.01904187602901e-14    3    1   27   13
 0.0005720418176054707    3    1   27   16
 0.002039369446218621    3    1   27   17
 -4.705448270608814e-14    3    1   27   19
 -6.332178095129308e-14    3    1   27   20
 -0.0001935023044357086    3    1   27   27
 6.492687751728301e-13    3    1   28    1
 -0.01781519480133083    3    1   28    2
 -3.31920837928594e-14    3    1   28    3
 -0.0002501773609384429    3    1   28    4
 2.962985623999534e-14    3    1   28    5
 -0.0004069505129199588    3    1   28   10
 8.184663884136523e-14    3    1   28   11
 1.924076674895969e-14    3    1   28   14
 0.00196150954698995    3    1   28   15
 0.001083642607711278    3    1   28   18
 -7.486632841446905e-15    3    1   28   25
 -0.003919901934265592    3    1   28   28
 3.847414650188116e-12    3    2    1    1
 -0.2009763295770549    3    2    2    1
 -1.098713654609687e-11    3    2    2    2
 3.326909375864016e-15    3    2    3    1
 0.03293062599852433    3    2    3    2