 &FCI NORB=  28,NELEC=14,MS2=0,
  ORBSYM=1,1,1,1,1,1,1,1,1,1,1,1,1,1,1,1,1,1,1,1,1,1,1,1,1,1,1,1,
  ISYM=1,
 &END
 2.301522012566393    1    1    1    1
 -4.739759400121477e-12    2    1    1    1
 1.821176987388408    2    1    2    1
 2.302446225253967    2    2    1    1
 4.735355526750903e-12    2    2    2    1
 2.303371226336084    2    2    2    2
 -0.1985303366561278    3    1    1    1
 2.716969029519976e-13    3    1    2    1
 -0.1986889929443195    3    1    2    2
 0.03621779221347844    3    1    3    1
 2.84957165624781e-13    3    2    1    1
 -0.2088930672860542    3    2    2    1
 -8.019665762362942e-13    3    2    2    2
 0.03583026091137156    3    2    3    2
 0.8372568274565944    3    3    1    1
 0.8371821595253683    3    3    2    2
 0.00584088945493389    3    3    3    1
 7.556401251246347e-15    3    3    3    2
 0.8175266716217346    3    3    3    3
 7.011134811350035e-13    4    1    1    1
 -0.1773656041643188    4    1    2    1
 -2.214685784751851e-13    4    1    2    2
 -6.601758347872928e-14    4    1    3    1
 0.02557297962034518    4    1    3    2
 2.773829614350493e-14    4    1    3    3
 0.02874133310358889    4    1    4    1
 -0.1851653921631261    4    2    1    1
 -2.313177251199276e-13    4    2    2    1
 -0.1852874512770284    4    2    2    2
 0.02523969193260516    4    2    3    1
 6.615993594172396e-14    4    2    3    2
 -0.02173835763959656    4    2    3    3
 0.02901751816272677    4    2    4    2
 -4.395709582324893e-13    4    3    1    1
 0.1684546675266347    4    3    2    1
 4.367868439440932e-13    4    3    2    2
 1.133354647381724e-14    4    3    3    1
 -0.008827090417411566    4    3    3    2
 -2.003063513666969e-15    4    3    3    3
 -0.003655693760319976    4    3    4    1
 -4.612204512082808e-15    4    3    4    2
 0.05433332684721497    4    3    4    3
 0.6654179675351547    4    4    1    1
 6.747183242889268e-15    4    4    2    1
 0.66548646056272    4    4    2    2
 -0.01311079572012285    4    4    3    1
 -1.752756468610672e-14    4    4    3    2
 0.519656297035917    4    4    3    3
 4.154720323204866e-15    4    4    4    1
 -0.003096118737219601    4    4    4    2
 2.447044303299784e-15    4    4    4    3
 0.5358940620429135    4    4    4    4
 0.07252960980792411    5    1    1    1
 -7.515835318743034e-14    5    1    2    1
 0.07255560437311968    5    1    2    2
 -0.002522114388706955    5    1    3    1
 1.316739821561122e-15    5    1    3    2
 0.03106633666694482    5    1    3    3
 4.08253994473647e-14    5    1    4    1
 -0.01591351727965337    5    1    4    2
 2.400288084611346e-15    5    1    4    3
 -0.006247509767011706    5    1    4    4
 0.01771790544773067    5    1    5    1
 -5.353711299559442e-14    5    2    1    1
 0.05581143825833969    5    2    2    1
 2.368518165748795e-13    5    2    2    2
 1.312792859785154e-15    5    2    3    1
 -0.003246384506979261    5    2    3    2
 4.012626819357989e-14    5    2    3    3
 -0.01536584140459344    5    2    4    1
 -4.052133283050877e-14    5    2    4    2
 -0.002068016806703063    5    2    4    3
 -8.697544366578075e-15    5    2    4    4
 1.157668198737067e-15    5    2    5    1
 0.0165345007376554    5    2    5    2
 0.09717948001712248    5    3    1    1
 2.596047563117182e-15    5    3    2    1
 0.09710685094530022    5    3    2    2
 0.009034110024961786    5    3    3    1
 1.162691633509877e-14    5    3    3    2
 0.1428881743546474    5    3    3    3
 9.703783932532399e-15    5    3    4    1
 -0.007694276384567226    5    3    4    2
 0.005460116039411352    5    3    4    4
 0.01634630258064081    5    3    5    1
 2.117507829236392e-14    5    3    5    2
 0.06668409949209184    5    3    5    3
 6.555997894764536e-13    5    4    1    1
 -0.2523292472921539    5    4    2    1
 -6.571435358219448e-13    5    4    2    2
 -2.018609786974285e-14    5    4    3    1
 0.01550005636636971    5    4    3    2
 -0.003968706427372434    5    4    4    1
 -5.392828382206477e-15    5    4    4    2
 -0.0916816163880648    5    4    4    3
 -6.168785100790775e-15    5    4    4    4
 -2.16150610864857e-14    5    4    5    1
 0.0165598481408755    5    4    5    2
 -1.584236214435819e-15    5    4    5    3
 0.2084245907811944    5    4    5    4
 0.6940806264779917    5    5    1    1
 -6.512755016275379e-15    5    5    2    1
 0.6941086348188972    5    5    2    2
 -0.008286041576861948    5    5    3    1
 -1.041265055949647e-14    5    5    3    2
 0.5673269296123251    5    5    3    3
 5.119975352973344e-15    5    5    4    1
 -0.004050529107291818    5    5    4    2
 -2.827599265842196e-15    5    5    4    3
 0.5401634544043472    5    5    4    4
 -0.001377309666126219    5    5    5    1
 -1.475599156752772e-15    5    5    5    2
 0.03290364666497265    5    5    5    3
 4.957731274124466e-15    5    5    5    4
 0.5624411375816518    5    5    5    5
 0.01243622681624707    6    1    6    1
 0.0118459903250489    6    2    6    2
 0.017031461601839    6    3    6    1
 2.202158100789536e-14    6    3    6    2
 0.1004521727978648    6    3    6    3
 -1.388518599343804e-14    6    4    6    1
 0.01061802637282962    6    4    6    2
 0.04162691573784013    6    4    6    4
 -0.004031017668492892    6    5    6    1
 -5.045277366692007e-15    6    5    6    2
 -0.01102003930195755    6    5    6    3
 0.02354750481398685    6    5    6    5
 0.6842900326878598    6    6    1    1
 -2.516543756085332e-15    6    6    2    1
 0.6842856652264975    6    6    2    2
 2.557105365960719e-05    6    6    3    1
 0.6320081464169846    6    6    3    3
 1.094224105772581e-14    6    6    4    1
 -0.008558775282505614    6    6    4    2
 -1.714141401606644e-15    6    6    4    3
 0.4923125679399727    6    6    4    4
 0.01059666241683593    6    6    5    1
 1.366706742551255e-14    6    6    5    2
 0.06192461579826481    6    6    5    3
 0.5037581793634437    6    6    5    5
 0.5748528396979674    6    6    6    6
 0.01243622681624709    7    1    7    1
 0.01184599032504892    7    2    7    2
 0.01703146160183902    7    3    7    1
 2.221691964804086e-14    7    3    7    2
 0.1004521727978649    7    3    7    3
 -1.370321072939129e-14    7    4    7    1
 0.01061802637282964    7    4    7    2
 0.04162691573784016    7    4    7    4
 -0.004031017668492897    7    5    7    1
 -5.124376380896152e-15    7    5    7    2
 -0.01102003930195755    7    5    7    3
 0.02354750481398687    7    5    7    5
 0.02317858804895741    7    6    7    6
 0.6842900326878606    7    7    1    1
 0.6842856652264984    7    7    2    2
 2.557105365957277e-05    7    7    3    1
 0.6320081464169853    7    7    3    3
 1.091909655223997e-14    7    7    4    1
 -0.008558775282505652    7    7    4    2
 0.4923125679399732    7    7    4    4
 0.01059666241683596    7    7    5    1
 1.360847767824841e-14    7    7    5    2
 0.0619246157982649    7    7    5    3
 -1.221402308023131e-15    7    7    5    4
 0.5037581793634442    7    7    5    5
 0.528495663600053    7    7    6    6
 0.5748528396979683    7    7    7    7
 -6.408281631095149e-15    8    1    6    1
 0.002413961874462084    8    1    6    2
 -4.210849873438519e-15    8    1    6    3
 0.002193952211997406    8    1    6    4
 1.221944488237904e-15    8    1    6    5
 3.031748920276397e-14    8    1    7    1
 -0.01141367790306939    8    1    7    2
 1.993824017742699e-14    8    1    7    3
 -0.01037342973283082    8    1    7    4
 -5.787258905711341e-15    8    1    7    5
 0.01151040413230774    8    1    8    1
 0.002512060857813322    8    2    6    1
 6.406264477882131e-15    8    2    6    2
 0.003235426322959554    8    2    6    3
 2.869920940276692e-15    8    2    6    4
 -0.0009181019188114299    8    2    6    5
 -0.0118775088402664    8    2    7    1
 -3.027382465293742e-14    8    2    7    2
 -0.01529772044871313    8    2    7    3
 -1.355473153675123e-14    8    2    7    4
 0.004340963166967453    8    2    7    5
 0.01188718575437325    8    2    8    2
 -2.683427424904011e-15    8    3    6    1
 0.002060618357556742    8    3    6    2
 0.00696181059277509    8    3    6    4
 1.27072628486677e-14    8    3    7    1
 -0.009743001520910696    8    3    7    2
 -0.03291678487913894    8    3    7    4
 0.009658482558701845    8    3    8    1
 1.247846412210147e-14    8    3    8    2
 0.03158116415682331    8    3    8    3
 0.002867842496475857    8    4    6    1
 3.748150864891891e-15    8    4    6    2
 0.01318401878668801    8    4    6    3
 -0.006796204090445189    8    4    6    5
 -0.01355971313291922    8    4    7    1
 -1.77192202217674e-14    8    4    7    2
 -0.06233658679170498    8    4    7    3
 0.03213376535582164    8    4    7    5
 -1.76069166000035e-14    8    4    8    1
 0.013537474363366    8    4    8    2
 0.07184428411419942    8    4    8    4
 1.710209032582217e-15    8    5    6    1
 -0.001284747953772214    8    5    6    2
 -0.00700647221336406    8    5    6    4
 -8.083951317704172e-15    8    5    7    1
 0.006074536423343927    8    5    7    2
 0.03312795364589716    8    5    7    4
 -0.006507374464652558    8    5    8    1
 -8.243345730172928e-15    8    5    8    2
 -0.0218933168879409    8    5    8    3
 0.03579050684268763    8    5    8    5
 -1.26656539215654e-13    8    6    1    1
 0.04870297652214625    8    6    2    1
 1.267042198329907e-13    8    6    2    2
 2.278504312047772e-15    8    6    3    1
 -0.001756608621518539    8    6    3    2
 -0.0003414220846158794    8    6    4    1
 0.01670864977630606    8    6    4    3
 1.074385096290694e-15    8    6    5    1
 -0.0008344716365638683    8    6    5    2
 -0.02758173514177944    8    6    5    4
 0.01897807387710121    8    6    8    6
 5.99443329014861e-13    8    7    1    1
 -0.2302770780372815    8    7    2    1
 -5.985601135542194e-13    8    7    2    2
 -1.07557589621578e-14    8    7    3    1
 0.008305584781547141    8    7    3    2
 0.001614309548144165    8    7    4    1
 2.029379305180899e-15    8    7    4    2
 -0.07900172275274481    8    7    4    3
 -3.603287981746823e-15    8    7    4    4
 -5.069884203011996e-15    8    7    5    1
 0.003945543042642091    8    7    5    2
 0.1304117700641774    8    7    5    4
 3.52244147986906e-15    8    7    5    5
 1.214360643292389e-15    8    7    6    6
 -0.02505086119413331    8    7    8    6
 0.132125194080324    8    7    8    7
 0.616500013595721    8    8    1    1
 -1.881816465458522e-15    8    8    2    1
 0.6165268361404423    8    8    2    2
 -0.004250398619532358    8    8    3    1
 -5.48925831862855e-15    8    8    3    2
 0.5299442506963653    8    8    3    3
 6.118361677075931e-15    8    8    4    1
 -0.004744045726450406    8    8    4    2
 0.4787482916745525    8    8    4    4
 0.002688833892359581    8    8    5    1
 3.402398715820272e-15    8    8    5    2
 0.02573492767326185    8    8    5    3
 0.4808897285243065    8    8    5    5
 0.473371081361504    8    8    6    6
 -0.007234939166644404    8    8    7    6
 0.5060491008997319    8    8    7    7
 0.4792788492890948    8    8    8    8
 -3.03591111922735e-14    9    1    6    1
 0.01141367790306938    9    1    6    2
 -1.993633048181039e-14    9    1    6    3
 0.01037342973283081    9    1    6    4
 5.821402175308203e-15    9    1    6    5
 -6.432536573075952e-15    9    1    7    1
 0.002413961874462092    9    1    7    2
 -4.23236099226519e-15    9    1    7    3
 0.00219395221199741    9    1    7    4
 1.231848973585602e-15    9    1    7    5
 0.01151040413230773    9    1    9    1
 0.01187750884026639    9    2    6    1
 3.022706320411511e-14    9    2    6    2
 0.01529772044871312    9    2    6    3
 1.348831657551558e-14    9    2    6    4
 -0.004340963166967454    9    2    6    5
 0.002512060857813329    9    2    7    1
 6.382215825175924e-15    9    2    7    2
 0.003235426322959559    9    2    7    3
 2.846837193157063e-15    9    2    7    4
 -0.0009181019188114332    9    2    7    5
 0.01188718575437325    9    2    9    2
 -1.268077097609071e-14    9    3    6    1
 0.009743001520910682    9    3    6    2
 0.03291678487913892    9    3    6    4
 -2.691235065199177e-15    9    3    7    1
 0.002060618357556745    9    3    7    2
 0.006961810592775096    9    3    7    4
 0.009658482558701838    9    3    9    1
 1.260950150482854e-14    9    3    9    2
 0.03158116415682328    9    3    9    3
 0.0135597131329192    9    4    6    1
 1.766833908905726e-14    9    4    6    2
 0.06233658679170494    9    4    6    3
 -0.03213376535582163    9    4    6    5
 0.002867842496475862    9    4    7    1
 3.732158452087287e-15    9    4    7    2
 0.01318401878668802    9    4    7    3
 -0.006796204090445206    9    4    7    5
 -1.749901950245215e-14    9    4    9    1
 0.01353747436336601    9    4    9    2
 0.07184428411419945    9    4    9    4
 8.115141293489009e-15    9    5    6    1
 -0.006074536423343925    9    5    6    2
 -0.03312795364589716    9    5    6    4
 1.718300393514123e-15    9    5    7    1
 -0.001284747953772218    9    5    7    2
 -0.007006472213364078    9    5    7    4
 -0.00650737446465256    9    5    9    1
 -8.290219863100242e-15    9    5    9    2
 -0.02189331688794092    9    5    9    3
 0.03579050684268766    9    5    9    5
 -5.997206927827071e-13    9    6    1    1
 0.2302770780372813    9    6    2    1
 5.982830244153447e-13    9    6    2    2
 1.081212916542942e-14    9    6    3    1
 -0.008305584781547122    9    6    3    2
 -0.001614309548144154    9    6    4    1
 -2.029980354756184e-15    9    6    4    2
 0.07900172275274478    9    6    4    3
 3.374433912462542e-15    9    6    4    4
 5.121749202524465e-15    9    6    5    1
 -0.003945543042642104    9    6    5    2
 1.205454250919535e-15    9    6    5    3
 -0.1304117700641774    9    6    5    4
 -3.651832715684771e-15    9    6    5    5
 -1.340615986278326e-15    9    6    6    6
 0.0250508611941333    9    6    8    6
 -0.1047654245240409    9    6    8    7
 0.1321251940803238    9    6    9    6
 -1.270484799407493e-13    9    7    1    1
 0.04870297652214635    9    7    2    1
 1.263088989781403e-13    9    7    2    2
 2.287973126377513e-15    9    7    3    1
 -0.00175660862151854    9    7    3    2
 -0.0003414220846158745    9    7    4    1
 0.0167086497763061    9    7    4    3
 1.07378363157041e-15    9    7    5    1
 -0.000834471636563871    9    7    5    2
 -0.02758173514177948    9    7    5    4
 -0.008381695679181789    9    7    8    6
 -0.02505086119413335    9    7    8    7
 0.02505086119413332    9    7    9    6
 0.01897807387710123    9    7    9    7
 0.007234939166644299    9    8    6    6
 -0.01633900976911374    9    8    7    6
 -0.007234939166644413    9    8    7    7
 0.0182504911144487    9    8    9    8
 0.6165000135957208    9    9    1    1
 0.6165268361404421    9    9    2    2
 -0.004250398619532374    9    9    3    1
 -5.552527656506948e-15    9    9    3    2
 0.5299442506963651    9    9    3    3
 6.111015312086932e-15    9    9    4    1
 -0.004744045726450392    9    9    4    2
 0.4787482916745522    9    9    4    4
 0.002688833892359562    9    9    5    1
 3.341162614186536e-15    9    9    5    2
 0.02573492767326181    9    9    5    3
 -1.093008542323802e-15    9    9    5    4
 0.4808897285243063    9    9    5    5
 0.5060491008997312    9    9    6    6
 0.007234939166644326    9    9    7    6
 0.4733710813615042    9    9    7    7
 0.4427778670601972    9    9    8    8
 0.4792788492890943    9    9    9    9
 4.584459416382319e-13   10    1    1    1
 -0.1176640608738785   10    1    2    1
 -1.535825376177227e-13   10    1    2    2
 -5.222434128516317e-14   10    1    3    1
 0.01982728973593049   10    1    3    2
 2.190887987522927e-15   10    1    3    3
 0.0162419946522126   10    1    4    1
 -0.003734852499481294   10    1    4    3
 7.461297238961582e-15   10    1    4    4
 1.094754985398431e-14   10    1    5    1
 -0.004382380984069883   10    1    5    2
 -2.74360409066067e-15   10    1    5    3
 0.004855525945343998   10    1    5    4
 5.761650244363523e-15   10    1    5    5
 1.398064301859955e-15   10    1    6    6
 1.357106023695473e-15   10    1    7    7
 -0.0005537113825461688   10    1    8    6
 0.002618054343983167   10    1    8    7
 2.797102691609252e-15   10    1    8    8
 -0.002618054343983163   10    1    9    6
 -0.0005537113825461701   10    1    9    7
 2.776417723520828e-15   10    1    9    9
 0.0114334919222912   10    1   10    1
 -0.1163755027518014   10    2    1    1
 -1.51276841937496e-13   10    2    2    1
 -0.1164635884948016   10    2    2    2
 0.0198787610852093   10    2    3    1
 5.11047888543685e-14   10    2    3    2
 -0.002538812928613532   10    2    3    3
 0.01622251042194132   10    2    4    2
 -4.755032901714723e-15   10    2    4    3
 -0.005593434498553949   10    2    4    4
 -0.004303620980283708   10    2    5    1
 -1.160447102078771e-14   10    2    5    2
 0.001597045050047586   10    2    5    3
 5.576339764295016e-15   10    2    5    4
 -0.004198106529006556   10    2    5    5
 -0.00131573798627675   10    2    6    6
 -0.001315737986276753   10    2    7    7
 3.192230008976227e-15   10    2    8    7
 -0.002129798493208167   10    2    8    8
 -3.176544652858972e-15   10    2    9    6
 -0.002129798493208167   10    2    9    9
 0.01145017208195863   10    2   10    2
 -3.387953979860914e-13   10    3    1    1
 0.1281326334519902   10    3    2    1
 3.278013778929174e-13   10    3    2    2
 6.103085837269942e-15   10    3    3    1
 -0.004729895100165191   10    3    3    2
 -3.382385517503028e-15   10    3    3    3
 -0.005619176760196346   10    3    4    1
 -7.01990879366384e-15   10    3    4    2
 0.03275019308730495   10    3    4    3
 -5.104624151353781e-15   10    3    5    1
 0.003490144738799925   10    3    5    2
 -0.03831982745369752   10    3    5    4
 -2.91787264922877e-15   10    3    5    5
 -1.510103890892123e-15   10    3    6    6
 0.01024239674496436   10    3    8    6
 -0.04842802972127297   10    3    8    7
 -1.127693926195224e-15   10    3    8    8
 0.04842802972127291   10    3    9    6
 0.01024239674496438   10    3    9    7
 -0.00255400212128425   10    3   10    1
 -3.330377271025141e-15   10    3   10    2
 0.02761126298321182   10    3   10    3
 0.137616018208747   10    4    1    1
 1.132629587178875e-15   10    4    2    1
 0.1376325095197697   10    4    2    2
 -0.003414096730356848   10    4    3    1
 -4.613137942390683e-15   10    4    3    2
 0.09867004068837519   10    4    3    3
 5.930865404368303e-15   10    4    4    1
 -0.004610793828081543   10    4    4    2
 0.05331044456176511   10    4    4    4
 0.003029389152078127   10    4    5    1
 3.771024562494035e-15   10    4    5    2
 0.01733225830884323   10    4    5    3
 0.05259159945687179   10    4    5    5
 0.07922541157556866   10    4    6    6
 0.07922541157556875   10    4    7    7
 0.05963556991066748   10    4    8    8
 0.05963556991066746   10    4    9    9
 2.60493886796451e-15   10    4   10    1
 -0.0020819873446193   10    4   10    2
 0.03441628181571511   10    4   10    4
 -9.903761238068867e-15   10    5    1    1
 0.001524804938297772   10    5    2    1
 -1.970868638374781e-15   10    5    2    2
 -2.744254003159231e-15   10    5    3    1
 0.002135603032535899   10    5    3    2
 -4.097625220362243e-15   10    5    3    3
 -8.286054602193088e-05   10    5    4    1
 0.007036819921723123   10    5    4    3
 -2.525310147626081e-15   10    5    5    1
 0.001792429429111476   10    5    5    2
 -1.220594805784181e-15   10    5    5    3
 -0.02279757126197493   10    5    5    4
 -2.895470321839788e-15   10    5    5    5
 -2.576396398740882e-15   10    5    6    6
 -2.440484880156246e-15   10    5    7    7
 0.002049488163839561   10    5    8    6
 -0.009690375815662134   10    5    8    7
 -1.989280593549247e-15   10    5    8    8
 0.009690375815662136   10    5    9    6
 0.00204948816383956   10    5    9    7
 -1.828355344999245e-15   10    5    9    9
 0.0007421587065789075   10    5   10    1
 -0.0008080125099791805   10    5   10    3
 -1.417811180959294e-15   10    5   10    4
 0.02341725538933755   10    5   10    5
 -8.748997228466915e-15   10    6    6    1
 0.006723117068277594   10    6    6    2
 1.167063455221994e-15   10    6    6    3
 0.01968764896323798   10    6    6    4
 0.001350401521511395   10    6    8    1
 1.771555524359436e-15   10    6    8    2
 0.004048087138888695   10    6    8    3
 -0.002050745471254565   10    6    8    5
 0.006384959169987077   10    6    9    1
 8.340215123725034e-15   10    6    9    2
 0.01914013771950273   10    6    9    3
 1.029664810945123e-15   10    6    9    4
 -0.009696320607919143   10    6    9    5
 0.01437072627061113   10    6   10    6
 -8.646573466436223e-15   10    7    7    1
 0.006723117068277605   10    7    7    2
 1.535093619263629e-15   10    7    7    3
 0.01968764896323801   10    7    7    4
 -0.006384959169987085   10    7    8    1
 -8.366193471666007e-15   10    7    8    2
 -0.01914013771950275   10    7    8    3
 -1.078661181143033e-15   10    7    8    4
 0.009696320607919147   10    7    8    5
 0.001350401521511398   10    7    9    1
 1.757911758720144e-15   10    7    9    2
 0.004048087138888703   10    7    9    3
 -0.002050745471254574   10    7    9    5
 0.01437072627061113   10    7   10    7
 0.001508662296709581   10    8    6    1
 1.953717816465783e-15   10    8    6    2
 0.006712412075010478   10    8    6    3
 -0.001088180478415095   10    8    6    5
 -0.007133246676890938   10    8    7    1
 -9.230358626545847e-15   10    8    7    2
 -0.03173758052575517   10    8    7    3
 0.005145127440674897   10    8    7    5
 -9.066034781428465e-15   10    8    8    1
 0.00690603562693762   10    8    8    2
 0.0212020896248018   10    8    8    4
 0.01767752113308123   10    8   10    8
 0.007133246676890928   10    9    6    1
 9.209596492541791e-15   10    9    6    2
 0.03173758052575513   10    9    6    3
 -0.0051451274406749   10    9    6    5
 0.001508662296709584   10    9    7    1
 1.942898438700015e-15   10    9    7    2
 0.006712412075010487   10    9    7    3
 -0.001088180478415103   10    9    7    5
 -9.002765323248916e-15   10    9    9    1
 0.006906035626937615   10    9    9    2
 0.0212020896248018   10    9    9    4
 0.01767752113308127   10    9   10    9
 0.4147038345585807   10   10    1    1
 5.031484126907793e-15   10   10    2    1
 0.4147176303299485   10   10    2    2
 -0.00277731624192387   10   10    3    1
 -4.04487370247314e-15   10   10    3    2
 0.37303565676929   10   10    3    3
 4.403256730588223e-15   10   10    4    1
 -0.00315115506666868   10   10    4    2
 4.45628776934992e-15   10   10    4    3
 0.3677518598737928   10   10    4    4
 0.001759667790446847   10   10    5    1
 1.455917499190371e-15   10   10    5    2
 0.009014631114996514   10   10    5    3
 -9.102094078450307e-15   10   10    5    4
 0.3743085061543807   10   10    5    5
 0.3510085508639653   10   10    6    6
 0.3510085508639654   10   10    7    7
 1.253771392262237e-15   10   10    8    6
 -5.72111802377151e-15   10   10    8    7
 0.344911993518766   10   10    8    8
 5.639911281052346e-15   10   10    9    6
 1.161614207600969e-15   10   10    9    7
 0.3449119935187658   10   10    9    9
 3.87877392964836e-15   10   10   10    1
 -0.001728274073545123   10   10   10    2
 4.812122922359663e-15   10   10   10    3
 0.001911302698224943   10   10   10    4
 1.214219697009966e-14   10   10   10    5
 0.3492184342925546   10   10   10   10
 0.01149735152393905   11    1    1    1
 -1.963190877630984e-14   11    1    2    1
 0.01152362446649037   11    1    2    2
 -0.00844069104576536   11    1    3    1
 -2.210403626627666e-15   11    1    3    2
 -0.01829880332784892   11    1    3    3
 -8.245713275590108e-15   11    1    4    1
 0.002843926244932871   11    1    4    2
 -3.75666565997218e-15   11    1    4    3
 0.006569202368799509   11    1    4    4
 -0.010238602735536   11    1    5    1
 -0.01133383558466504   11    1    5    3
 1.599268677557331e-14   11    1    5    4
 0.00237931376629045   11    1    5    5
 -0.005263735152678204   11    1    6    6
 -0.005263735152678212   11    1    7    7
 -1.11755494181659e-15   11    1    8    6
 5.277963938295216e-15   11    1    8    7
 -0.0001203074623499436   11    1    8    8
 -5.317472943086946e-15   11    1    9    6
 -1.120854982179093e-15   11    1    9    7
 -0.0001203074623499366   11    1    9    9
 6.807494106316142e-15   11    1   10    1
 -0.002822305753464274   11    1   10    2
 1.531157741829076e-15   11    1   10    3
 -0.0005253477779681302   11    1   10    4
 2.404841733735785e-15   11    1   10    5
 -0.0003770038106861839   11    1   10   10
 0.008756384170830973   11    1   11    1
 -3.408833692470614e-14   11    2    1    1
 0.02276131339057719   11    2    2    1
 8.436373075769969e-14   11    2    2    2
 -2.205728640033533e-15   11    2    3    1
 -0.00794448552097117   11    2    3    2
 -2.312046225045467e-14   11    2    3    3
 0.002460631077614109   11    2    4    1
 5.534733929442358e-15   11    2    4    2
 0.003227460736414819   11    2    4    3
 9.272069874041722e-15   11    2    4    4
 -0.009407008882752371   11    2    5    2
 -1.458785213936595e-14   11    2    5    3
 -0.01237675790245871   11    2    5    4
 3.098338100838982e-15   11    2    5    5
 -6.593582288234173e-15   11    2    6    6
 -6.529648241375419e-15   11    2    7    7
 0.0008886954059552453   11    2    8    6
 -0.004201923495486412   11    2    8    7
 0.004201923495486411   11    2    9    6
 0.0008886954059552477   11    2    9    7
 -0.002767949198344624   11    2   10    1
 -7.78911465965852e-15   11    2   10    2
 -0.0007753306701045044   11    2   10    3
 -0.001795185880277874   11    2   10    5
 1.019122937082062e-15   11    2   10   10
 0.008172548484054744   11    2   11    2
 -0.1043185552075037   11    3    1    1
 -9.587762018098715e-15   11    3    2    1
 -0.1042861999274954   11    3    2    2
 -0.002677018919973972   11    3    3    1
 -3.092280121200219e-15   11    3    3    2
 -0.08946677589516376   11    3    3    3
 -8.596448019707959e-15   11    3    4    1
 0.007033072275853666   11    3    4    2
 -1.837749787417242e-15   11    3    4    3
 -0.02313434735478735   11    3    4    4
 -0.01070856044922218   11    3    5    1
 -1.404367751646832e-14   11    3    5    2
 -0.04063269761245981   11    3    5    3
 3.301883506195979e-15   11    3    5    4
 -0.04553816677591523   11    3    5    5
 -0.03329925909286771   11    3    6    6
 -0.03329925909286777   11    3    7    7
 3.445079508127002e-15   11    3    8    7
 -0.02272569847320013   11    3    8    8
 -3.441698152601563e-15   11    3    9    6
 -0.02272569847320011   11    3    9    9
 0.0006711052112412319   11    3   10    2
 -0.005866700823467073   11    3   10    4
 -0.01812195275582097   11    3   10   10
 0.006933326584213316   11    3   11    1
 8.835400672809607e-15   11    3   11    2
 0.03945280636596904   11    3   11    3
 -8.91459690871308e-14   11    4    1    1
 0.03039329696975064   11    4    2    1
 6.896740504605818e-14   11    4    2    2
 3.556646452774603e-15   11    4    3    1
 -0.002425500710127879   11    4    3    2
 -6.004989257582527e-15   11    4    3    3
 -0.0003586086558391177   11    4    4    1
 0.002108999831632114   11    4    4    3
 -4.491171974249641e-15   11    4    4    4
 1.814219212142518e-15   11    4    5    1
 -0.001405029712583528   11    4    5    2
 0.006890930864342168   11    4    5    4
 -4.04456199434855e-15   11    4    5    5
 -5.246969308689287e-15   11    4    6    6
 -5.171291997049798e-15   11    4    7    7
 0.0009294925003111525   11    4    8    6
 -0.004394820035935393   11    4    8    7
 -4.234880133201224e-15   11    4    8    8
 0.004394820035935384   11    4    9    6
 0.0009294925003111535   11    4    9    7
 -4.22466406882439e-15   11    4    9    9
 -0.0008508439739366908   11    4   10    1
 0.007123728479170879   11    4   10    3
 -0.01741897960844496   11    4   10    5
 -1.114885093966844e-15   11    4   10   10
 -2.115639698071223e-15   11    4   11    1
 0.001563388823418775   11    4   11    2
 0.01568144989768651   11    4   11    4
 -0.1646342937913599   11    5    1    1
 2.946817459102344e-15   11    5    2    1
 -0.1646227023358229   11    5    2    2
 0.0004778259022679532   11    5    3    1
 -0.1302990781962564   11    5    3    3
 -8.205579160483305e-15   11    5    4    1
 0.006385147520570249   11    5    4    2
 -0.04941395044953966   11    5    4    4
 -0.007462548247943584   11    5    5    1
 -9.888039009548627e-15   11    5    5    2
 -0.03937614858899948   11    5    5    3
 -0.06282514428283764   11    5    5    5
 -0.08313809539061731   11    5    6    6
 -0.08313809539061742   11    5    7    7
 -0.05711563094107581   11    5    8    8
 -0.05711563094107577   11    5    9    9
 -1.904352835092795e-15   11    5   10    1
 0.001496257842351415   11    5   10    2
 1.231545247726284e-15   11    5   10    3
 -0.03445957823033866   11    5   10    4
 -0.003027879383524552   11    5   10   10
 0.00393935621784913   11    5   11    1
 5.173812767100827e-15   11    5   11    2
 0.02367622408416722   11    5   11    3
 3.497744628655486e-15   11    5   11    4
 0.04682904205410961   11    5   11    5
 0.002329072323926275   11    6    6    1
 2.495787430115232e-15   11    6    6    2
 0.02449391883156221   11    6    6    3
 -1.286440393106352e-15   11    6    6    4
 -0.01002332535811061   11    6    6    5
 0.0004858726909782041   11    6    8    2
 0.00417586560064588   11    6    8    4
 -3.487183173560763e-15   11    6    9    1
 0.002297299909907873   11    6    9    2