 &FCI NORB=  28,NELEC=14,MS2=0,
  ORBSYM=1,1,1,1,1,1,1,1,1,1,1,1,1,1,1,1,1,1,1,1,1,1,1,1,1,1,1,1,
  ISYM=1,
 &END
 2.196085871275581    1    1    1    1
 -9.306076444645997e-07    2    1    1    1
 1.931525780468285    2    1    2    1
 2.196134073122683    2    2    1    1
 9.305839699072773e-07    2    2    2    1
 2.196182282169714    2    2    2    2
 -0.1966369643724538    3    1    1    1
 4.755154568637004e-08    3    1    2    1
 -0.196645662019415    3    1    2    2
 0.03041688847980295    3    1    3    1
 4.767486710710542e-08    3    2    1    1
 -0.1971568682367738    3    2    2    1
 -1.423048665679429e-07    3    2    2    2
 -1.693798439406969e-11    3    2    3    1
 0.03041682302624158    3    2    3    2
 0.6182621355646868    3    3    1    1
 -1.852565614255521e-10    3    3    2    1
 0.6182606452239175    3    3    2    2
 -0.007329846527929575    3    3    3    1
 -1.758829642696596e-09    3    3    3    2
 0.4904327694727573    3    3    3    3
 1.493156202812422e-07    4    1    1    1
 -0.2064357236746447    4    1    2    1
 -4.960123804672977e-08    4    1    2    2
 -1.530307434856272e-08    4    1    3    1
 0.03176191250668298    4    1    3    2
 2.178416555945001e-09    4    1    3    3
 0.03386141829052702    4    1    4    1
 -0.2071675364868828    4    2    1    1
 -4.97778024803016e-08    4    2    2    1
 -0.2071748500128729    4    2    2    2
 0.03175815511390537    4    2    3    1
 1.530045420369731e-08    4    2    3    2
 -0.009031987115341115    4    2    3    3
 1.435074365176546e-11    4    2    4    1
 0.03386796948357104    4    2    4    2
 -1.679547123755084e-07    4    3    1    1
 0.3485953194830878    4    3    2    1
 1.67946930372138e-07    4    3    2    2
 2.051301890257889e-09    4    3    3    1
 -0.008503906682255256    4    3    3    2
 -1.025149655851823e-10    4    3    3    3
 -0.008067982639589237    4    3    4    1
 -1.945811427402223e-09    4    3    4    2
 0.2035568960975602    4    3    4    3
 0.6253824281403015    4    4    1    1
 1.718868665714842e-10    4    4    2    1
 0.6253865621316104    4    4    2    2
 -0.009019139539760992    4    4    3    1
 -2.174504874018152e-09    4    4    3    2
 0.4705636013265626    4    4    3    3
 2.111760579259828e-09    4    4    4    1
 -0.008793282601221196    4    4    4    2
 9.765919926311029e-11    4    4    4    3
 0.478350613970064    4    4    4    4
 -0.03626889862964085    5    1    1    1
 7.626927363515695e-09    5    1    2    1
 -0.03626289278141842    5    1    2    2
 0.004289456507175628    5    1    3    1
 -5.088060922666695e-12    5    1    3    2
 -0.006699520630078042    5    1    3    3
 -3.548623995697854e-09    5    1    4    1
 0.007384109983004249    5    1    4    2
 -3.69711127374227e-10    5    1    4    3
 0.00102153949613234    5    1    4    4
 0.01251241245278402    5    1    5    1
 6.528693583457899e-09    5    2    1    1
 -0.0317029060311636    5    2    2    1
 -2.401834374644805e-08    5    2    2    2
 -5.079785116477702e-12    5    2    3    1
 0.004308453645344396    5    2    3    2
 -1.614581784873825e-09    5    2    3    3
 0.007355138837933619    5    2    4    1
 3.552652873936368e-09    5    2    4    2
 0.001522697481643744    5    2    4    3
 2.455534674977933e-10    5    2    4    4
 3.683414812334706e-11    5    2    5    1
 0.01235545221211934    5    2    5    2
 -0.009196736363467689    5    3    1    1
 -2.016855690068426e-11    5    3    2    1
 -0.009186722346150679    5    3    2    2
 -0.002334567158515922    5    3    3    1
 -5.620624139393519e-10    5    3    3    2
 -0.04149600194756652    5    3    3    3
 -2.861656353248141e-10    5    3    4    1
 0.001181701641858451    5    3    4    2
 -2.840549245608026e-11    5    3    4    3
 0.00546214102471909    5    3    4    4
 0.01409879665380788    5    3    5    1
 3.391275290880907e-09    5    3    5    2
 0.08072795292193938    5    3    5    3
 -6.2112295872648e-08    5    4    1    1
 0.1289196383495837    5    4    2    1
 6.211289261472471e-08    5    4    2    2
 8.20113901325159e-10    5    4    3    1
 -0.003406906957809539    5    4    3    2
 -5.400536590089547e-11    5    4    3    3
 -0.0001663942788103559    5    4    4    1
 -4.135591431741723e-11    5    4    4    2
 0.08632639801010239    5    4    4    3
 4.149888424096067e-11    5    4    4    4
 -3.15726353570123e-09    5    4    5    1
 0.0131145767743401    5    4    5    2
 -4.734505810403272e-12    5    4    5    3
 0.08936976467130982    5    4    5    4
 0.5852645500762478    5    5    1    1
 -2.702042521388524e-11    5    5    2    1
 0.5852651216167563    5    5    2    2
 -0.004743673437387842    5    5    3    1
 -1.141053655381185e-09    5    5    3    2
 0.4689652904558111    5    5    3    3
 1.172573769331034e-09    5    5    4    1
 -0.004870337086046361    5    5    4    2
 -1.303739450788819e-11    5    5    4    3
 0.4618811428782199    5    5    4    4
 -0.0003112119001475319    5    5    5    1
 -7.454623880061057e-11    5    5    5    2
 -0.01796493778944957    5    5    5    3
 -8.179367963099746e-12    5    5    5    4
 0.4787093610235637    5    5    5    5
 -1.587994534740344e-15    6    1    2    1
 0.01115901697588799    6    1    6    1
 -1.307949503539867e-15    6    2    1    1
 -1.299901809971976e-15    6    2    2    2
 1.606790111593708e-11    6    2    6    1
 0.0110833696313418    6    2    6    2
 3.19845967176912e-15    6    3    2    1
 1.497215357200682e-15    6    3    4    3
 -2.750702136476185e-15    6    3    5    4
 0.01312719182984271    6    3    6    1
 3.156596713108768e-09    6    3    6    2
 0.06982827790907058    6    3    6    3
 1.165133840947552e-15    6    4    1    1
 -1.566626733695655e-15    6    4    2    1
 1.174063190897982e-15    6    4    2    2
 1.41426640686679e-15    6    4    3    3
 -1.062375034862361e-15    6    4    4    3
 -3.411846241441509e-15    6    4    5    3
 -3.04616071848923e-09    6    4    6    1
 0.01264902013412926    6    4    6    2
 -8.186201192358842e-12    6    4    6    3
 0.05956906820573055    6    4    6    4
 -1.678982754981769e-14    6    5    2    1
 -9.844037206120027e-15    6    5    4    3
 -4.209644903066292e-15    6    5    5    4
 0.001555314708181481    6    5    6    1
 3.748317203619663e-10    6    5    6    2
 0.001019889860976584    6    5    6    3
 2.234356145634113e-14    6    5    6    4
 0.01907309766938015    6    5    6    5
 0.5603810043732653    6    6    1    1
 -5.405751620556921e-11    6    6    2    1
 0.5603806515964391    6    6    2    2
 -0.004112235932549418    6    6    3    1
 -9.88444630330045e-10    6    6    3    2
 0.4523517935234951    6    6    3    3
 1.189048653841783e-09    6    6    4    1
 -0.004936534976203417    6    6    4    2
 -2.974176124863254e-11    6    6    4    3
 0.4424089483883378    6    6    4    4
 -0.0034030402657057    6    6    5    1
 -8.199900737520751e-10    6    6    5    2
 -0.02354689812499671    6    6    5    3
 -1.710842719287915e-11    6    6    5    4
 0.4268184348487303    6    6    5    5
 1.640058253907421e-15    6    6    6    4
 0.4462549194514747    6    6    6    6
 -2.041953051598388e-15    7    1    6    2
 -2.317300301928361e-15    7    1    6    4
 0.01115901697588796    7    1    7    1
 -2.041261330467181e-15    7    2    6    1
 -2.235898421704667e-15    7    2    6    3
 1.607689932053939e-11    7    2    7    1
 0.01108336963134178    7    2    7    2
 -1.895900827396615e-15    7    3    2    1
 1.867513790180354e-15    7    3    5    4
 -2.23840962679172e-15    7    3    6    2
 -1.042666244395123e-14    7    3    6    4
 0.01312719182984268    7    3    7    1
 3.15660657215031e-09    7    3    7    2
 0.06982827790907044    7    3    7    3
 2.270738078363943e-15    7    4    5    3
 -2.314179964459659e-15    7    4    6    1
 -1.039507621400505e-14    7    4    6    3
 -1.959173270707324e-15    7    4    6    5
 -3.046150508598492e-09    7    4    7    1
 0.01264902013412923    7    4    7    2
 -8.140324822019581e-12    7    4    7    3
 0.05956906820573045    7    4    7    4
 1.114344086990871e-14    7    5    2    1
 6.540705130816052e-15    7    5    4    3
 2.815245733532104e-15    7    5    5    4
 -1.940035779919386e-15    7    5    6    4
 0.001555314708181495    7    5    7    1
 3.748333095701722e-10    7    5    7    2
 0.001019889860976682    7    5    7    3
 3.091725870922136e-14    7    5    7    4
 0.01907309766938013    7    5    7    5
 -5.19167430456122e-14    7    6    2    1
 -3.107858681005974e-14    7    6    4    3
 -1.237666393748781e-14    7    6    5    4
 0.01643780204324028    7    6    7    6
 0.5603810043732643    7    7    1    1
 -5.382864974746849e-11    7    7    2    1
 0.560380651596438    7    7    2    2
 -0.004112235932549425    7    7    3    1
 -9.884482987716834e-10    7    7    3    2
 0.4523517935234945    7    7    3    3
 1.189045258265334e-09    7    7    4    1
 -0.004936534976203414    7    7    4    2
 -2.960476693138633e-11    7    7    4    3
 0.4424089483883371    7    7    4    4
 -0.003403040265705686    7    7    5    1
 -8.199892907715019e-10    7    7    5    2
 -0.02354689812499661    7    7    5    3
 -1.705387418572252e-11    7    7    5    4
 0.4268184348487297    7    7    5    5
 0.4133793153649934    7    7    6    6
 -1.080333343513242e-15    7    7    7    4
 0.4462549194514733    7    7    7    7
 -5.152886987505634e-09    8    1    6    1
 0.01066006468052648    8    1    6    2
 -3.026817542293262e-09    8    1    6    3
 0.01214982417728594    8    1    6    4
 -3.795951050916189e-10    8    1    6    5
 2.548608281250665e-09    8    1    7    1
 -0.005272449853271488    8    1    7    2
 1.49705825848659e-09    8    1    7    3
 -0.00600928236559648    8    1    7    4
 1.877467580512568e-10    8    1    7    5
 0.01276194132597742    8    1    8    1
 0.0107285525496843    8    2    6    1
 5.151990906688031e-09    8    2    6    2
 0.01255006409515725    8    2    6    3
 2.92959694424331e-09    8    2    6    4
 0.001577314815833705    8    2    6    5
 -0.005306323836827296    8    2    7    1
 -2.548166826114254e-09    8    2    7    2
 -0.006207240347981796    8    2    7    3
 -1.448974626328535e-09    8    2    7    4
 -0.0007801372241668908    8    2    7    5
 -1.715975823126003e-11    8    2    8    1
 0.01283900661085718    8    2    8    2
 -1.089660940482705e-15    8    3    3    3
 -1.212740809533653e-15    8    3    5    5
 -2.737652269848859e-09    8    3    6    1
 0.01134941445913566    8    3    6    2
 -3.013560644850038e-11    8    3    6    3
 0.05295562175798791    8    3    6    4
 -8.89283146231357e-13    8    3    6    5
 1.354037670826805e-09    8    3    7    1
 -0.005613401080867722    8    3    7    2
 1.490651512795084e-11    8    3    7    3
 -0.02619176041941377    8    3    7    4
 4.373061028239464e-13    8    3    7    5
 0.01355285134702329    8    3    8    1
 3.262581302397367e-09    8    3    8    2
 0.05902948158068493    8    3    8    3
 2.767760360241877e-15    8    4    2    1
 1.967529724295116e-15    8    4    4    3
 1.001660901540651e-15    8    4    5    3
 0.01266872780088059    8    4    6    1
 3.054290250475952e-09    8    4    6    2
 0.0625389753356483    8    4    6    3
 2.795505167285131e-11    8    4    6    4
 0.008424378498099599    8    4    6    5
 -0.006265931214930528    8    4    7    1
 -1.510647715509673e-09    8    4    7    2
 -0.03093167079319294    8    4    7    3
 -1.383036607674078e-11    8    4    7    4
 -0.004166683271382882    8    4    7    5
 -3.635607456637008e-09    8    4    8    1
 0.01511362532095833    8    4    8    2
 5.17652881048191e-12    8    4    8    3
 0.07369179180499247    8    4    8    4
 -1.122810681715887e-15    8    5    1    1
 4.595931634515696e-15    8    5    2    1
 -1.120853613086126e-15    8    5    2    2
 2.767126052576112e-15    8    5    4    3
 1.309193454791696e-15    8    5    5    4
 -5.681318221568048e-10    8    5    6    1
 0.002359862622532849    8    5    6    2
 -1.971066316524204e-12    8    5    6    3
 0.01365428135596272    8    5    6    4
 -7.525751578356107e-13    8    5    6    5
 -1.481878922054686e-15    8    5    6    6
 2.809966428716012e-10    8    5    7    1
 -0.00116718403788332    8    5    7    2
 9.721369844709321e-13    8    5    7    3
 -0.006753384326390235    8    5    7    4
 3.722428406236497e-13    8    5    7    5
 0.002901887250487262    8    5    8    1
 6.999047298313861e-10    8    5    8    2
 0.0126291604964601    8    5    8    3
 7.051250546930976e-12    8    5    8    4
 0.01826448238602172    8    5    8    5
 -1.36582443667653e-07    8    6    1    1
 0.2834750153630732    8    6    2    1
 1.365701732874394e-07    8    6    2    2
 1.065755500021833e-09    8    6    3    1
 -0.004418871102066133    8    6    3    2
 -9.340030019206808e-11    8    6    3    3
 -0.004045873951557984    8    6    4    1
 -9.756614276212547e-10    8    6    4    2
 0.1722885383398143    8    6    4    3
 8.275570185264124e-11    8    6    4    4
 -2.668987503818332e-10    8    6    5    1
 0.001106391432953123    8    6    5    2
 -1.17533499176909e-11    8    6    5    3
 0.06921695913525601    8    6    5    4
 -1.377643435419403e-11    8    6    5    5
 1.788998798125309e-15    8    6    6    3
 -1.022740660099891e-15    8    6    6    4
 -8.577174139216474e-15    8    6    6    5
 -3.269862831022097e-11    8    6    6    6
 -1.04723324761863e-15    8    6    7    3
 5.619241538508774e-15    8    6    7    5
 1.196709655741472e-12    8    6    7    6
 -2.763629584349702e-11    8    6    7    7
 2.080531931610775e-15    8    6    8    4
 2.405434203196427e-15    8    6    8    5
 0.1675450271106106    8    6    8    6
 6.755343257996955e-08    8    7    1    1
 -0.1402062602760262    8    7    2    1
 -6.754738701814017e-08    8    7    2    2
 -5.271204933878806e-10    8    7    3    1
 0.002185566128531551    8    7    3    2
 4.619198865904073e-11    8    7    3    3
 0.002001082372531466    8    7    4    1
 4.825607813948232e-10    8    7    4    2
 -0.08521361792011664    8    7    4    3
 -4.093627800407374e-11    8    7    4    4
 1.320074161334232e-10    8    7    5    1
 -0.0005472193202533599    8    7    5    2
 5.810423505232663e-12    8    7    5    3
 -0.03423459021812953    8    7    5    4
 6.810105894998689e-12    8    7    5    5
 4.404237968897515e-15    8    7    6    5
 1.371643665754605e-11    8    7    6    6
 -2.76543557305385e-15    8    7    7    5
 -2.451000978849591e-12    8    7    7    6
 1.610455570123089e-11    8    7    7    7
 -1.092931878235265e-15    8    7    8    4
 -1.198112691601733e-15    8    7    8    5
 -0.07497021054983476    8    7    8    6
 0.05304718660671062    8    7    8    7
 0.5814891652406636    8    8    1    1
 4.333996132990115e-11    8    8    2    1
 0.5814900365991093    8    8    2    2
 -0.00490871070850992    8    8    3    1
 -1.181658488179688e-09    8    8    3    2
 0.4550703095282556    8    8    3    3
 1.295522619082961e-09    8    8    4    1
 -0.005385170130818549    8    8    4    2
 2.78202772783386e-11    8    8    4    3
 0.4531089095303536    8    8    4    4
 -0.002037222489499433    8    8    5    1
 -4.907395320885807e-10    8    8    5    2
 -0.01084481817205038    8    8    5    3
 9.869615716735156e-12    8    8    5    4
 0.431410203383189    8    8    5    5
 1.345196932998947e-15    8    8    6    4
 0.4443602535029315    8    8    6    6
 -0.01342258593168829    8    8    7    6
 0.4238606831817998    8    8    7    7
 2.422734562068044e-11    8    8    8    6
 -1.19881620499725e-11    8    8    8    7
 0.4599014446790657    8    8    8    8
 -2.548609503788513e-09    9    1    6    1
 0.00527244985327151    9    1    6    2
 -1.497059038868092e-09    9    1    6    3
 0.006009282365596497    9    1    6    4
 -1.877472372344427e-10    9    1    6    5
 -5.15288598347336e-09    9    1    7    1
 0.01066006468052647    9    1    7    2
 -3.026816896407103e-09    9    1    7    3
 0.01214982417728593    9    1    7    4
 -3.795947135582447e-10    9    1    7    5
 3.856777081875303e-15    9    1    8    2
 4.6407609748657e-15    9    1    8    4
 0.01276194132597742    9    1    9    1
 0.00530632383682732    9    2    6    1
 2.548165557840164e-09    9    2    6    2
 0.006207240347981813    9    2    6    3
 1.448973250599457e-09    9    2    6    4
 0.0007801372241668728    9    2    6    5
 0.01072855254968428    9    2    7    1
 5.151991952322358e-09    9    2    7    2
 0.01255006409515723    9    2    7    3
 2.929598074581699e-09    9    2    7    4
 0.00157731481583371    9    2    7    5
 3.856409729901235e-15    9    2    8    1
 4.502315582922036e-15    9    2    8    3
 -1.716152798798742e-11    9    2    9    1
 0.01283900661085717    9    2    9    2
 -1.354038359618217e-09    9    3    6    1
 0.005613401080867742    9    3    6    2
 -1.490436716394052e-11    9    3    6    3
 0.0261917604194138    9    3    6    4
 -4.409154649099953e-13    9    3    6    5
 -2.737651707072966e-09    9    3    7    1
 0.01134941445913565    9    3    7    2
 -3.013735019400018e-11    9    3    7    3
 0.05295562175798788    9    3    7    4
 -8.863426698540951e-13    9    3    7    5
 4.50998270079384e-15    9    3    8    2
 2.302752858241862e-14    9    3    8    4
 0.01355285134702329    9    3    9    1
 3.262579232739055e-09    9    3    9    2
 0.05902948158068493    9    3    9    3
 0.006265931214930546    9    4    6    1
 1.510646356986148e-09    9    4    6    2
 0.030931670793193    9    4    6    3
 1.382489024987943e-11    9    4    6    4
 0.00416668327138277    9    4    6    5
 0.01266872780088057    9    4    7    1
 3.054291369822297e-09    9    4    7    2
 0.06253897533564827    9    4    7    3
 2.795954583029396e-11    9    4    7    4
 0.008424378498099634    9    4    7    5
 4.644739007434603e-15    9    4    8    1
 2.301977144098141e-14    9    4    8    3
 4.144662996067775e-15    9    4    8    5
 -3.635609584980691e-09    9    4    9    1
 0.01511362532095833    9    4    9    2
 5.165940231082349e-12    9    4    9    3
 0.07369179180499248    9    4    9    4
 -2.809971890068709e-10    9    5    6    1
 0.001167184037883308    9    5    6    2
 -9.760153297072539e-13    9    5    6    3
 0.006753384326390155    9    5    6    4
 -3.722056007992398e-13    9    5    6    5
 -5.68131377466989e-10    9    5    7    1
 0.002359862622532852    9    5    7    2
 -1.967908230130747e-12    9    5    7    3
 0.01365428135596273    9    5    7    4
 -7.526061434853033e-13    9    5    7    5
 4.179738432744505e-15    9    5    8    4
 0.002901887250487259    9    5    9    1
 6.999044087804153e-10    9    5    9    2
 0.01262916049646008    9    5    9    3
 7.049329482498748e-12    9    5    9    4
 0.01826448238602171    9    5    9    5
 -6.755344921937576e-08    9    6    1    1
 0.1402062602760265    9    6    2    1
 6.754737036793574e-08    9    6    2    2
 5.271210109608461e-10    9    6    3    1
 -0.002185566128531562    9    6    3    2
 -4.619715098750274e-11    9    6    3    3
 -0.002001082372531478    9    6    4    1
 -4.825603570112848e-10    9    6    4    2
 0.08521361792011679    9    6    4    3
 4.092853486429921e-11    9    6    4    4
 -1.320077690480528e-10    9    6    5    1
 0.0005472193202533473    9    6    5    2
 -5.814327894968087e-12    9    6    5    3
 0.03423459021812948    9    6    5    4
 -6.815374352120909e-12    9    6    5    5
 -4.291219962974467e-15    9    6    6    5
 -1.617411653692452e-11    9    6    6    6
 1.856109764530761e-15    9    6    7    5
 -2.488426655285572e-12    9    6    7    6
 -1.367614831552724e-11    9    6    7    7
 1.109970917412579e-15    9    6    8    5
 0.07497021054983487    9    6    8    6
 -0.02111309055094871    9    6    8    7
 1.004912078978728e-11    9    6    8    8
 0.05304718660671074    9    6    9    6
 -1.365824299841889e-07    9    7    1    1
 0.283475015363073    9    7    2    1
 1.365701870238781e-07    9    7    2    2
 1.065755078095522e-09    9    7    3    1
 -0.004418871102066125    9    7    3    2
 -9.33959619684157e-11    9    7    3    3
 -0.004045873951557971    9    7    4    1
 -9.756617796585824e-10    9    7    4    2
 0.1722885383398142    9    7    4    3
 8.276210233544511e-11    9    7    4    4
 -2.668984638813727e-10    9    7    5    1
 0.001106391432953124    9    7    5    2
 -1.1750179601804e-11    9    7    5    3
 0.06921695913525601    9    7    5    4
 -1.377209835539471e-11    9    7    5    5
 1.176352011728112e-15    9    7    6    3
 -7.664834642069492e-15    9    7    6    5
 -2.77471961287459e-11    9    7    6    6
 -1.114633733446788e-15    9    7    7    3
 5.733379214080924e-15    9    7    7    5
 -1.246313084202547e-12    9    7    7    6
 -3.25637162443508e-11    9    7    7    7
 1.595489670656293e-15    9    7    8    4
 2.229906058216859e-15    9    7    8    5
 0.1356109310548484    9    7    8    6
 -0.07497021054983467    9    7    8    7
 2.029944346160694e-11    9    7    8    8
 0.07497021054983483    9    7    9    6
 0.1675450271106103    9    7    9    7
 1.095510251999017e-13    9    8    2    1
 -1.60534786309617e-15    9    8    3    2
 -1.454120299466289e-15    9    8    4    1
 6.816402322852013e-14    9    8    4    3
 2.74472849787316e-14    9    8    5    4
 0.01342258593168838    9    8    6    6
 0.01024978516056557    9    8    7    6
 -0.01342258593168838    9    8    7    7
 1.031331182293257e-12    9    8    8    6
 1.93462309683943e-12    9    8    8    7
 1.991153928884845e-12    9    8    9    6
 -9.103446339022028e-13    9    8    9    7
 0.01794107074607523    9    8    9    8
 0.5814891652406636    9    9    1    1
 4.328961427531879e-11    9    9    2    1
 0.5814900365991093    9    9    2    2
 -0.004908710708509908    9    9    3    1
 -1.181657737151499e-09    9    9    3    2
 0.4550703095282557    9    9    3    3
 1.295523298328899e-09    9    9    4    1
 -0.005385170130818532    9    9    4    2
 2.778892366796773e-11    9    9    4    3
 0.4531089095303538    9    9    4    4
 -0.002037222489499438    9    9    5    1
 -4.907397359091675e-10    9    9    5    2
 -0.01084481817205041    9    9    5    3
 9.856998248090296e-12    9    9    5    4
 0.431410203383189    9    9    5    5
 0.4238606831818004    9    9    6    6
 0.01342258593168847    9    9    7    6
 0.4443602535029308    9    9    7    7
 2.027977839911405e-11    9    9    8    6
 -1.002131690618861e-11    9    9    8    7
 0.4240193031869153    9    9    8    8
 1.196562910332679e-11    9    9    9    6
 2.420340275381271e-11    9    9    9    7
 0.4599014446790658    9    9    9    9
 4.143017185218115e-08   10    1    1    1
 -0.05890160606769303   10    1    2    1
 -1.53240563641739e-08   10    1    2    2
 -4.767916732879723e-09   10    1    3    1
 0.009879915081824821   10    1    3    2
 -8.903627414331839e-10   10    1    3    3
 0.007250536256857091   10    1    4    1
 8.858955247280584e-12   10    1    4    2
 -0.00528330186563949   10    1    4    3
 1.254619756933326e-09   10    1    4    4
 5.443542975183538e-09   10    1    5    1
 -0.0112157743758457   10    1    5    2
 3.850837994975236e-09   10    1    5    3
 -0.01547062444469235   10    1    5    4
 4.898489153908926e-10   10    1    5    5
 -4.520618654803646e-10   10    1    6    6
 -4.520641054932984e-10   10    1    7    7
 -0.002851891882671849   10    1    8    6
 0.00141054087277796   10    1    8    7
 -2.460282129933267e-11   10    1    8    8
 -0.001410540872777952   10    1    9    6
 -0.002851891882671843   10    1    9    7
 -1.079939902694921e-15   10    1    9    8
 -2.460232257649772e-11   10    1    9    9
 0.01676485811423883   10    1   10    1
 -0.05416976205214425   10    2    1    1
 -1.418433397927692e-08   10    2    2    1
 -0.05418033720448989   10    2    2    2
 0.009902723443688966   10    2    3    1
 4.763227857206452e-09   10    2    3    2
 0.003708240166796922   10    2    3    3
 8.870829026828593e-12   10    2    4    1
 0.007223913107822175   10    2    4    2
 -1.269957224696308e-09   10    2    4    3
 -0.005215512176391396   10    2    4    4
 -0.01137806449264969   10    2    5    1
 -5.441998196923166e-09   10    2    5    2
 -0.0159678731231814   10    2    5    3
 -3.730624565313794e-09   10    2    5    4
 -0.002035478246056174   10    2    5    5
 0.001879374388139277   10    2    6    6
 0.001879374388139267   10    2    7    7
 -6.868486370073057e-10   10    2    8    6
 3.397145877761566e-10   10    2    8    7
 0.0001009200380637354   10    2    8    8
 -3.39713995764501e-10   10    2    9    6
 -6.868491184642211e-10   10    2    9    7
 0.0001009200380637466   10    2    9    9
 -4.04356344108249e-11   10    2   10    1
 0.01693507175917795   10    2   10    2
 -4.415719698998973e-08   10    3    1    1
 0.09161920476518784   10    3    2    1
 4.412580772390643e-08   10    3    2    2
 3.780098433194602e-10   10    3    3    1
 -0.001563114672873954   10    3    3    2
 -3.317007160884592e-11   10    3    3    3
 -0.004793133804033345   10    3    4    1
 -1.153585837877754e-09   10    3    4    2
 0.03888043831837042   10    3    4    3
 1.866532601900841e-11   10    3    4    4
 3.190663171106731e-09   10    3    5    1
 -0.0132286762899903   10    3    5    2
 3.012982249220482e-11   10    3    5    3
 -0.0403105280546586   10    3    5    4
 -1.035359146507597e-11   10    3    5    5
 -2.185615556475925e-15   10    3    6    5
 -1.624983508212788e-11   10    3    6    6
 1.418336132659862e-15   10    3    7    5
 -6.603075833506999e-15   10    3    7    6
 -1.622071498895027e-11   10    3    7    7
 -3.310196504089327e-15   10    3    8    4
 0.03586294603004189   10    3    8    6
 -0.01773775208694506   10    3    8    7
 -2.008523257652009e-12   10    3    8    8
 0.01773775208694514   10    3    9    6
 0.03586294603004186   10    3    9    7
 1.406479913004105e-14   10    3    9    8
 -2.014977079503946e-12   10    3    9    9
 0.01344764559956481   10    3   10    1
 3.236589858345796e-09   10    3   10    2
 0.06919091892013232   10    3   10    3
 0.05406424445909184   10    4    1    1
 2.858316148423326e-11   10    4    2    1
 0.05405544251337403   10    4    2    2
 -0.0003011806484643032   10    4    3    1
 -7.196321980785597e-11   10    4    3    2
 0.05106211606895053   10    4    3    3
 9.359299740207187e-10   10    4    4    1
 -0.003889194632097342   10    4    4    2
 2.345202222524267e-11   10    4    4    3
 0.0116868266507583   10    4    4    4
 -0.01444333380746404   10    4    5    1
 -3.482485561096584e-09   10    4    5    2
 -0.06991021479489545   10    4    5    3
 -2.700088465529618e-11   10    4    5    4
 0.01730439811069914   10    4    5    5
 0.03852940940951304   10    4    6    6
 0.03852940940951293   10    4    7    7
 -3.803196518532929e-15   10    4    8    3
 1.0866064450131e-11   10    4    8    6
 -5.372858259103559e-12   10    4    8    7
 0.02981429803708678   10    4    8    8
 5.374930535373412e-12   10    4    9    6
 1.086438787377278e-11   10    4    9    7
 0.02981429803708683   10    4    9    9
 -3.663825712014227e-09   10    4   10    1
 0.01522787763405602   10    4   10    2
 5.529361799157251e-12   10    4   10    3
 0.06995711518543261   10    4   10    4
 1.468169615358057e-07   10    5    1    1
 -0.3047134371766899   10    5    2    1
 -1.468007065408502e-07   10    5    2    2
 -1.153555516453735e-09   10    5    3    1
 0.00478280079206876   10    5    3    2
 9.952868145260679e-11   10    5    3    3
 0.004541168151412603   10    5    4    1
 1.094834685197116e-09   10    5    4    2
 -0.1804640690693805   10    5    4    3
 -8.670461217893206e-11   10    5    4    4
 1.892870719954825e-10   10    5    5    1
 -0.0007878787754579551   10    5    5    2
 1.029924564144476e-11   10    5    5    3
 -0.07922693700276143   10    5    5    4
 1.753134779274718e-11   10    5    5    5
 -1.912078102505076e-15   10    5    6    3
 1.140576018954732e-15   10    5    6    4
 9.030147356378512e-15   10    5    6    5
 3.013685577946037e-11   10    5    6    6
 1.151060415289428e-15   10    5    7    3
 -5.999423568564866e-15   10    5    7    5
 2.615329759941658e-14   10    5    7    6
 3.002160527444889e-11   10    5    7    7
 -2.590144019604049e-15   10    5    8    4
 -2.512074663755166e-15   10    5    8    5
 -0.1449844744486993   10    5    8    6
 0.07170907437645453   10    5    8    7
 -2.046932866533058e-11   10    5    8    8
 -0.07170907437645466   10    5    9    6
 -0.1449844744486992   10    5    9    7
 -5.738032255288641e-14   10    5    9    8
 -2.044296444636291e-11   10    5    9    9
 0.00294829611942132   10    5   10    1
 7.109942991946061e-10   10    5   10    2
 -0.03463427326140921   10    5   10    3
 -7.633588653224201e-12   10    5   10    4
 0.1828095330727101   10    5   10    5
 3.201783894201634e-15   10    6    1    1
 4.026180434735135e-15   10    6    2    1
 3.20418955038881e-15   10    6    2    2
 1.614564638878937e-15   10    6    3    3
 2.390676844191595e-15   10    6    4    3
 1.276733414870171e-15   10    6    4    4
 -1.00067839043904e-15   10    6    5    3
 1.192432310013118e-15   10    6    5    4
 2.720243988842308e-15   10    6    5    5
 -8.475788591070872e-10   10    6    6    1
 0.003515393489913369   10    6    6    2
 -6.066978093248253e-12   10    6    6    3
 0.01245995295221988   10    6    6    4
 2.74177423076852e-12   10    6    6    5
 1.47712136690699e-15   10    6    6    6
 -2.792923633684543e-15   10    6    7    3
 2.2718136818379e-15   10    6    7    5
 1.248007482485832e-15   10    6    7    7
 0.003297878507710203   10    6    8    1
 7.942630586729857e-10   10    6    8    2
 0.01348723041165169   10    6    8    3
 3.463381019910526e-12   10    6    8    4
 -0.01112472062894608   10    6    8    5