 &FCI NORB=  28,NELEC=14,MS2=0,
  ORBSYM=1,1,1,1,1,1,1,1,1,1,1,1,1,1,1,1,1,1,1,1,1,1,1,1,1,1,1,1,
  ISYM=1,
 &END
 2.169720173029147    1    1    1    1
 -0.0002349269105283934    2    1    1    1
 1.95803269981411    2    1    2    1
 2.169711474825601    2    2    1    1
 0.0002349278976297654    2    2    2    1
 2.169702889698124    2    2    2    2
 -0.2010120177162943    3    1    1    1
 1.208324744495211e-05    3    1    2    1
 -0.2010107370081624    3    1    2    2
 0.03167687137747845    3    1    3    1
 1.208948364084847e-05    3    2    1    1
 -0.2011143311239027    3    2    2    1
 -3.617037719465206e-05    3    2    2    2
 -5.750108209264638e-09    3    2    3    1
 0.03167632315080566    3    2    3    2
 0.5927392862468603    3    3    1    1
 -6.822082562412169e-08    3    3    2    1
 0.5927391116750749    3    3    2    2
 -0.008268097079946891    3    3    3    1
 -4.936991800763924e-07    3    3    3    2
 0.4523605734710811    3    3    3    3
 3.715065557252306e-05    4    1    1    1
 -0.2064394612625713    4    1    2    1
 -1.238718749726345e-05    4    1    2    2
 -3.904522661744597e-06    4    1    3    1
 0.03254123887944161    4    1    3    2
 5.240483733352107e-07    4    1    3    3
 0.03355559732736443    4    1    4    1
 -0.2066887107591601    4    2    1    1
 -1.240215411575995e-05    4    2    2    1
 -0.2066874933875212    4    2    2    2
 0.03254085732860044    4    2    3    1
 3.904114927356248e-06    4    2    3    2
 -0.008722106724018479    4    2    3    3
 5.676370689691402e-09    4    2    4    1
 0.033556034978602    4    2    4    2
 -4.613083272803799e-05    4    3    1    1
 0.384474497235619    4    3    2    1
 4.612870466442326e-05    4    3    2    2
 5.192413798502775e-07    4    3    3    1
 -0.008641606341832841    4    3    3    2
 -4.253681927397181e-08    4    3    3    3
 -0.008577306197884899    4    3    4    1
 -5.152889393071578e-07    4    3    4    2
 0.2401371866551055    4    3    4    3
 0.6017054584614387    4    4    1    1
 6.742663332605642e-08    4    4    2    1
 0.6017053896367706    4    4    2    2
 -0.008869099521772322    4    4    3    1
 -5.327784854001834e-07    4    4    3    2
 0.4511541169538266    4    4    3    3
 5.365060839140113e-07    4    4    4    1
 -0.008981261574051285    4    4    4    2
 4.166473883821422e-08    4    4    4    3
 0.4553259360210748    4    4    4    4
 -0.02089477514546583    5    1    1    1
 1.084627482725213e-06    5    1    2    1
 -0.02089553533585613    5    1    2    2
 0.002859764943713899    5    1    3    1
 -5.168945221064929e-10    5    1    3    2
 -0.003040039854818902    5    1    3    3
 -4.932070125310086e-07    5    1    4    1
 0.004117319572222545    5    1    4    2
 -7.750394016744952e-08    5    1    4    3
 0.0001193332401195995    5    1    4    4
 0.01116593939872057    5    1    5    1
 9.163545992461766e-07    5    2    1    1
 -0.01808999670766614    5    2    2    1
 -3.424615395440174e-06    5    2    2    2
 -5.161652372679136e-10    5    2    3    1
 0.002864043958920116    5    2    3    2
 -1.825932217839668e-07    5    2    3    3
 0.004109462088481307    5    2    4    1
 4.938537488238351e-07    5    2    4    2
 0.001286103569797181    5    2    4    3
 7.304335063202708e-09    5    2    4    4
 4.208241621547835e-09    5    2    5    1
 0.0110915020921842    5    2    5    2
 -0.0001834177798445172    5    3    1    1
 -5.544983999841041e-09    5    3    2    1
 -0.0001830482678894402    5    3    2    2
 -0.001074957910553918    5    3    3    1
 -6.440565541903572e-08    5    3    3    2
 -0.01724021792444901    5    3    3    3
 -2.181725063663559e-08    5    3    4    1
 0.0003613448290646157    5    3    4    2
 -6.065014633298337e-09    5    3    4    3
 0.00215337900173012    5    3    4    4
 0.01312842372922452    5    3    5    1
 7.861682512419553e-07    5    3    5    2
 0.07292846548715916    5    3    5    3
 -9.039806909335396e-06    5    4    1    1
 0.07534651522914716    5    4    2    1
 9.040546163049101e-06    5    4    2    2
 9.189126587053284e-08    5    4    3    1
 -0.001533175823686888    5    4    3    2
 -1.091218452209281e-08    5    4    3    3
 -0.0002006273298922587    5    4    4    1
 -1.218791739978925e-08    5    4    4    2
 0.05484139827757761    5    4    4    3
 9.755767762836655e-09    5    4    4    4
 -7.459302408731508e-07    5    4    5    1
 0.01244814843413772    5    4    5    2
 -8.012192477473254e-10    5    4    5    3
 0.06802498956921052    5    4    5    4
 0.5413414260388033    5    5    1    1
 -6.982811165316069e-09    5    5    2    1
 0.5413405803701659    5    5    2    2
 -0.004371882795571834    5    5    3    1
 -2.617667317927266e-07    5    5    3    2
 0.4321024643562679    5    5    3    3
 2.709626412236191e-07    5    5    4    1
 -0.004521335364861489    5    5    4    2
 -4.261715869091631e-09    5    5    4    3
 0.4298350794131977    5    5    4    4
 -0.0007064120277996167    5    5    5    1
 -4.236105384740847e-08    5    5    5    2
 -0.01521627712383689    5    5    5    3
 -2.011356691904208e-09    5    5    5    4
 0.4389926555021746    5    5    5    5
 -4.608061669792663e-15    6    1    1    1
 -1.270432139466775e-14    6    1    2    1
 -4.612836424538579e-15    6    1    2    2
 2.125904612871242e-15    6    1    3    2
 1.414563419721833e-15    6    1    4    1
 -1.425006616396158e-15    6    1    4    3
 -1.042907831228069e-14    6    1    5    2
 -1.22106696567752e-14    6    1    5    4
 0.01157824268787478    6    1    6    1
 -1.149747713040523e-14    6    2    1    1
 -4.007278102621739e-15    6    2    2    1
 -1.149976903317204e-14    6    2    2    2
 2.128486961611856e-15    6    2    3    1
 1.411034570139565e-15    6    2    4    2
 -1.221768584521231e-15    6    2    4    4
 -1.044334904550007e-14    6    2    5    1
 -1.209624028674669e-14    6    2    5    3
 -1.432950455327699e-15    6    2    5    5
 1.912415280752004e-09    6    2    6    1
 0.01153979380292371    6    2    6    2
 2.07787641798334e-14    6    3    2    1
 -3.798717809409857e-15    6    3    3    3
 -1.177087066109489e-15    6    3    4    1
 9.08761006377227e-15    6    3    4    3
 -1.173505885425783e-14    6    3    5    2
 1.181107927863815e-15    6    3    5    3
 -5.215990224743592e-14    6    3    5    4
 -3.855714167371683e-15    6    3    5    5
 0.01346339176071453    6    3    6    1
 8.060638771011166e-07    6    3    6    2
 0.0675741013752524    6    3    6    3
 1.159341044858397e-14    6    4    1    1
 1.684212912339881e-14    6    4    2    1
 1.159534750427038e-14    6    4    2    2
 1.164708339556361e-14    6    4    3    3
 1.228780211247457e-14    6    4    4    3
 2.56577022609081e-15    6    4    4    4
 -1.199545635472661e-14    6    4    5    1
 -5.570859114217112e-14    6    4    5    3
 1.087268562772868e-15    6    4    5    4
 -7.952379955657902e-07    6    4    6    1
 0.01326832319614362    6    4    6    2
 -1.662423111412863e-09    6    4    6    3
 0.0631312064972973    6    4    6    4
 -2.850413804141168e-13    6    5    2    1
 4.214528510739596e-15    6    5    3    2
 1.507350310257908e-15    6    5    3    3
 4.155081296099086e-15    6    5    4    1
 -1.814804621892683e-13    6    5    4    3
 1.016949807184006e-15    6    5    4    4
 -4.141012555870696e-14    6    5    5    4
 1.453279051045189e-15    6    5    5    5
 0.0009147886941378817    6    5    6    1
 5.488128493649548e-08    6    5    6    2
 0.001085467966927291    6    5    6    3
 4.770244794647586e-11    6    5    6    4
 0.0172411086047026    6    5    6    5
 0.5408155724877722    6    6    1    1
 -1.074556661064516e-08    6    6    2    1
 0.5408158161737973    6    6    2    2
 -0.004564751996825837    6    6    3    1
 -2.73256038380131e-07    6    6    3    2
 0.4251499906726011    6    6    3    3
 2.895180711671014e-07    6    6    4    1
 -0.004830094579383789    6    6    4    2
 -6.92221285392786e-09    6    6    4    3
 0.4250731122357709    6    6    4    4
 -0.001974735346897363    6    6    5    1
 -1.184864897316835e-07    6    6    5    2
 -0.01231851585175025    6    6    5    3
 -2.27607559233584e-09    6    6    5    4
 0.3978070866810324    6    6    5    5
 2.014813695424683e-15    6    6    6    2
 -2.24217896819276e-15    6    6    6    3
 1.483538475775108e-14    6    6    6    4
 1.674290731782701e-15    6    6    6    5
 0.424590917099131    6    6    6    6
 -1.118774217338628e-14    7    1    6    2
 -1.27686966082819e-14    7    1    6    4
 0.01157824268787477    7    1    7    1
 -1.118601958155858e-14    7    2    6    1
 -1.248738486158923e-14    7    2    6    3
 -1.105591759279631e-15    7    2    6    5
 1.912520280406898e-09    7    2    7    1
 0.01153979380292372    7    2    7    2
 -1.251062437209811e-14    7    3    6    2
 -5.900579588477185e-14    7    3    6    4
 0.01346339176071453    7    3    7    1
 8.060639944060954e-07    7    3    7    2
 0.06757410137525242    7    3    7    3
 -1.020926105271732e-15    7    4    5    3
 -1.276195750501792e-14    7    4    6    1
 -5.883607220829158e-14    7    4    6    3
 -5.548333756461109e-15    7    4    6    5
 -7.952378757705057e-07    7    4    7    1
 0.01326832319614363    7    4    7    2
 -1.66187031072672e-09    7    4    7    3
 0.06313120649729732    7    4    7    4
 -5.067668412743512e-15    7    5    2    1
 -3.226164802901224e-15    7    5    4    3
 -1.092707748797496e-15    7    5    6    2
 -5.445074293173486e-15    7    5    6    4
 0.0009147886941378785    7    5    7    1
 5.488129526356051e-08    7    5    7    2
 0.001085467966927273    7    5    7    3
 4.775410316009425e-11    7    5    7    4
 0.01724110860470259    7    5    7    5
 -3.075806374840658e-13    7    6    2    1
 4.499034505337789e-15    7    6    3    2
 4.426287489943165e-15    7    6    4    1
 -1.973477367253522e-13    7    6    4    3
 -4.204565504196226e-14    7    6    5    4
 2.811127811022732e-15    7    6    7    4
 0.01618600850550608    7    6    7    6
 0.540815572487772    7    7    1    1
 -1.074268064768448e-08    7    7    2    1
 0.5408158161737979    7    7    2    2
 -0.004564751996825842    7    7    3    1
 -2.732560805860684e-07    7    7    3    2
 0.4251499906726011    7    7    3    3
 2.895180296442078e-07    7    7    4    1
 -0.004830094579383803    7    7    4    2
 -6.920361404267519e-09    7    7    4    3
 0.4250731122357709    7    7    4    4
 -0.001974735346897369    7    7    5    1
 -1.184864827265827e-07    7    7    5    2
 -0.01231851585175028    7    7    5    3
 -2.275681026223351e-09    7    7    5    4
 0.3978070866810324    7    7    5    5
 -2.751003231167331e-15    7    7    6    3
 9.249637225207573e-15    7    7    6    4
 1.20731186431769e-15    7    7    6    5
 0.3922189000881189    7    7    6    6
 0.4245909170991311    7    7    7    7
 -7.994954641009741e-15    8    1    1    1
 -7.997081207193193e-15    8    1    2    2
 1.197969985206277e-15    8    1    3    1
 1.449542561120471e-15    8    1    4    2
 -1.466240210679791e-15    8    1    5    1
 -2.667322267040738e-15    8    1    5    2
 -1.070693596808036e-15    8    1    5    3
 -3.061935468555335e-15    8    1    5    4
 -1.624230963328356e-15    8    1    5    5
 -1.440817818860268e-06    8    1    6    1
 0.01198865134018672    8    1    6    2
 -8.382654518848494e-07    8    1    6    3
 0.01377268743106189    8    1    6    4
 -5.9544774063771e-08    8    1    6    5
 -2.568886868018359e-08    8    1    7    1
 0.0002137500484329212    8    1    7    2
 -1.49457419306324e-08    8    1    7    3
 0.0002455582802356445    8    1    7    4
 -1.061645803925416e-09    8    1    7    5
 0.01245911888888885    8    1    8    1
 -6.909746509297772e-15    8    2    2    1
 1.199602360689735e-15    8    2    3    2
 1.447301434050735e-15    8    2    4    1
 -2.675913908007239e-15    8    2    5    1
 -1.514970738362043e-15    8    2    5    2
 -3.102855444794856e-15    8    2    5    3
 -1.721759063763781e-15    8    2    5    4
 0.01202778367763329    8    2    6    1
 1.44070528021103e-06    8    2    6    2
 0.01395219810796735    8    2    6    3
 8.274026422290045e-07    8    2    6    4
 0.0009930672789204816    8    2    6    5
 0.0002144477531861217    8    2    7    1
 2.568686026380635e-08    8    2    7    2
 0.0002487588417328466    8    2    7    3
 1.475206322634324e-08    8    2    7    4
 1.77057596341004e-05    8    2    7    5
 -2.082672168491643e-09    8    2    8    1
 0.01249897925643991    8    2    8    2
 -6.393973958183814e-15    8    3    3    3
 -2.961958895929703e-15    8    3    5    2
 2.971355489657505e-15    8    3    5    3
 -1.407681243526537e-14    8    3    5    4
 -1.276976814916743e-14    8    3    5    5
 -7.993205181241495e-07    8    3    6    1
 0.01330263808661176    8    3    6    2
 -1.168314060275071e-08    8    3    6    3
 0.06315451369926191    8    3    6    4
 -3.033977907438948e-10    8    3    6    5
 1.732174993096843e-15    8    3    6    6
 -1.425137841456861e-08    8    3    7    1
 0.0002371775985983943    8    3    7    2
 -2.083024438313162e-10    8    3    7    3
 0.001126004917394228    8    3    7    4
 -5.411532774043143e-12    8    3    7    5
 -5.310522283864018e-15    8    3    7    7
 0.013809851269545    8    3    8    1
 8.275349372593888e-07    8    3    8    2
 0.06328423290091741    8    3    8    3
 2.695229011201099e-14    8    4    2    1
 2.028788453020444e-14    8    4    4    3
 -3.13710685071734e-15    8    4    5    1
 -1.710218239681474e-15    8    4    5    2
 -1.535407300004375e-14    8    4    5    3
 -3.71823150834114e-15    8    4    5    4
 -1.947106861462206e-15    8    4    5    5
 0.01409212674060762    8    4    6    1
 8.465110731105615e-07    8    4    6    2
 0.06890769257185105    8    4    6    3
 1.144921600076816e-08    8    4    6    4
 0.004492180249568493    8    4    6    5
 2.003286168862535e-15    8    4    6    6
 0.0002512536804895393    8    4    7    1
 1.509275444778702e-08    8    4    7    2
 0.001228580447181893    8    4    7    3
 2.041283952213053e-10    8    4    7    4
 8.009272424963428e-05    8    4    7    5
 -8.752432595901425e-07    8    4    8    1
 0.01461613353461097    8    4    8    2
 1.195774076135892e-09    8    4    8    3
 0.07106214152594346    8    4    8    4
 -1.770904407974091e-14    8    5    1    1
 -7.592463860069518e-14    8    5    2    1
 -1.772797225993617e-14    8    5    2    2
 1.077627325255502e-15    8    5    3    2
 -3.736817443870992e-15    8    5    3    3
 1.058899709025323e-15    8    5    4    1
 -4.925124703745757e-14    8    5    4    3
 -6.091587548158041e-15    8    5    4    4
 -7.448114557785818e-15    8    5    5    3
 -1.228565756619733e-14    8    5    5    4
 -1.46601510661315e-15    8    5    5    5
 -8.627190813780259e-08    8    5    6    1
 0.001438552048625833    8    5    6    2
 -5.967161466896885e-10    8    5    6    3
 0.007989126105380655    8    5    6    4
 -3.063124710603143e-10    8    5    6    5
 -2.976377869305649e-14    8    5    6    6
 -1.538173689125621e-09    8    5    7    1
 2.564847048611164e-05    8    5    7    2
 -1.064137302318641e-11    8    5    7    3
 0.0001424410505823675    8    5    7    4
 -5.461016306353547e-12    8    5    7    5
 -3.383173375827302e-15    8    5    7    7
 0.001527707303179921    8    5    8    1
 9.172134276801632e-08    8    5    8    2
 0.006869703832294995    8    5    8    3
 9.293187241311634e-10    8    5    8    4
 0.01587105916453302    8    5    8    5
 -4.091554859946615e-05    8    6    1    1
 0.3410092284587359    8    6    2    1
 4.091394566314982e-05    8    6    2    2
 2.911458300918785e-07    8    6    3    1
 -0.004845781593244306    8    6    3    2
 -3.951231902086995e-08    8    6    3    3
 -0.004755040161846727    8    6    4    1
 -2.856648125577628e-07    8    6    4    2
 0.2211660633889758    8    6    4    3
 3.847941585884152e-08    8    6    4    4
 -5.352926738722844e-08    8    6    5    1
 0.000891650255096904    8    6    5    2
 -3.703138298132508e-09    8    6    5    3
 0.04743561328107689    8    6    5    4
 -4.115589292076793e-09    8    6    5    5
 1.368492928321874e-14    8    6    6    3
 1.233263476831784e-14    8    6    6    4
 -1.730526552430637e-13    8    6    6    5
 -7.342363248068376e-09    8    6    6    6
 -3.077872977570239e-15    8    6    7    5
 -9.453485588198536e-12    8    6    7    6
 -6.301441848200883e-09    8    6    7    7
 1.494307554166625e-15    8    6    8    2
 1.403236820518146e-15    8    6    8    3
 2.172961112995103e-14    8    6    8    4
 -4.71313748012732e-14    8    6    8    5
 0.2274500469804661    8    6    8    6
 -7.294982904409235e-07    8    7    1    1
 0.006079978225306714    8    7    2    1
 7.294696839831005e-07    8    7    2    2
 5.190945839196416e-09    8    7    3    1
 -8.639721190150203e-05    8    7    3    2
 -7.04484929445108e-10    8    7    3    3
 -8.47793497412197e-05    8    7    4    1
 -5.09322203828109e-09    8    7    4    2
 0.003943250614241074    8    7    4    3
 6.860574669120062e-10    8    7    4    4
 -9.543930710445511e-10    8    7    5    1
 1.589755843289212e-05    8    7    5    2
 -6.602674566054556e-11    8    7    5    3
 0.0008457468941721522    8    7    5    4
 -7.33824046866543e-11    8    7    5    5
 -3.090380216609252e-15    8    7    6    5
 -1.124135173321858e-10    8    7    6    6
 -5.195122772243386e-10    8    7    7    6
 -1.308806655847301e-10    8    7    7    7
 0.00376470939773953    8    7    8    6
 0.01636499092858966    8    7    8    7
 0.5544849035776136    8    8    1    1
 9.517620078079771e-09    8    8    2    1
 0.5544852004048545    8    8    2    2
 -0.004945632801597671    8    8    3    1
 -2.963605368308712e-07    8    8    3    2
 0.4299451871387386    8    8    3    3
 3.084284788117803e-07    8    8    4    1
 -0.005150534482253108    8    8    4    2
 6.121563101257884e-09    8    8    4    3
 0.4315920936454117    8    8    4    4
 -0.001399159223807304    8    8    5    1
 -8.391492543253321e-08    8    8    5    2
 -0.006872726876529416    8    8    5    3
 9.897168053295526e-10    8    8    5    4
 0.4007835580286365    8    8    5    5
 1.266594615680355e-15    8    8    6    2
 -1.626773010017221e-15    8    8    6    3
 1.36320992817725e-14    8    8    6    4
 -6.49804723904752e-15    8    8    6    5
 0.4297485456181867    8    8    6    6
 0.0005944064841812574    8    8    7    6
 0.3964205213870646    8    8    7    7
 2.672639660028539e-15    8    8    8    3
 -6.411895118885857e-15    8    8    8    5
 6.222099973667605e-09    8    8    8    6
 1.109300953867668e-10    8    8    8    7
 0.4359365252673975    8    8    8    8
 2.568886655526535e-08    9    1    6    1
 -0.0002137500484329268    9    1    6    2
 1.494574042693471e-08    9    1    6    3
 -0.0002455582802356475    9    1    6    4
 1.061645227101132e-09    9    1    6    5
 -1.440817807815878e-06    9    1    7    1
 0.01198865134018672    9    1    7    2
 -8.382654440471163e-07    9    1    7    3
 0.01377268743106188    9    1    7    4
 -5.954477109406759e-08    9    1    7    5
 8.016866050462315e-15    9    1    8    2
 9.528256583487967e-15    9    1    8    4
 0.01245911888888885    9    1    9    1
 -0.0002144477531861268    9    2    6    1
 -2.568686245089581e-08    9    2    6    2
 -0.0002487588417328485    9    2    6    3
 -1.47520655314588e-08    9    2    6    4
 -1.770575963410177e-05    9    2    6    5
 0.01202778367763329    9    2    7    1
 1.440705291578179e-06    9    2    7    2
 0.01395219810796734    9    2    7    3
 8.274026541869102e-07    9    2    7    4
 0.0009930672789204785    9    2    7    5
 8.01661578662954e-15    9    2    8    1
 9.327948029874377e-15    9    2    8    3
 -2.082762950078095e-09    9    2    9    1
 0.01249897925643988    9    2    9    2
 1.425137702125158e-08    9    3    6    1
 -0.0002371775985984009    9    3    6    2
 2.083037491417645e-10    9    3    6    3
 -0.001126004917394232    9    3    6    4
 5.406676974674957e-12    9    3    6    5
 -7.99320510871366e-07    9    3    7    1
 0.01330263808661176    9    3    7    2
 -1.168314711527727e-08    9    3    7    3
 0.06315451369926187    9    3    7    4
 -3.033729379698122e-10    9    3    7    5
 3.540254038072562e-15    9    3    7    6
 9.346863093234648e-15    9    3    8    2
 4.703017751302748e-14    9    3    8    4
 0.01380985126954499    9    3    9    1
 8.275348314363904e-07    9    3    9    2
 0.06328423290091735    9    3    9    3
 -0.0002512536804895456    9    4    6    1
 -1.50927567115826e-08    9    4    6    2
 -0.0012285804471819    9    4    6    3
 -2.041371625243153e-10    9    4    6    4
 -8.009272424964057e-05    9    4    6    5
 0.01409212674060761    9    4    7    1
 8.465110848284066e-07    9    4    7    2
 0.06890769257185102    9    4    7    3
 1.144926120387639e-08    9    4    7    4
 0.004492180249568482    9    4    7    5
 9.519999516732283e-15    9    4    8    1
 4.687051545759072e-14    9    4    8    3
 4.262561838754954e-15    9    4    8    5
 1.387361404981225e-15    9    4    8    7
 -8.752433675416749e-07    9    4    9    1
 0.01461613353461094    9    4    9    2
 1.195241369903492e-09    9    4    9    3
 0.07106214152594335    9    4    9    4
 2.181300259446993e-15    9    5    2    1
 1.403118894973758e-15    9    5    4    3
 1.538173042128119e-09    9    5    6    1
 -2.564847048611163e-05    9    5    6    2
 1.063622689685481e-11    9    5    6    3
 -0.0001424410505823645    9    5    6    4
 5.461810779464952e-12    9    5    6    5
 -8.627190487069299e-08    9    5    7    1
 0.001438552048625832    9    5    7    2
 -5.966900364152169e-10    9    5    7    3
 0.007989126105380653    9    5    7    4
 -3.063165463983163e-10    9    5    7    5
 -1.318846500011528e-14    9    5    7    6
 4.214886532675372e-15    9    5    8    4
 1.296355933099946e-15    9    5    8    6
 -3.615742980559702e-15    9    5    8    7
 0.001527707303179921    9    5    9    1
 9.172133360533294e-08    9    5    9    2
 0.006869703832294989    9    5    9    3
 9.292700303939852e-10    9    5    9    4
 0.015871059164533    9    5    9    5
 7.294982599388493e-07    9    6    1    1
 -0.006079978225306759    9    6    2    1
 -7.294697144855455e-07    9    6    2    2
 -5.190944993557847e-09    9    6    3    1
 8.639721190150389e-05    9    6    3    2
 7.044728506398233e-10    9    6    3    3
 8.477934974122164e-05    9    6    4    1
 5.093222847060426e-09    9    6    4    2
 -0.00394325061424108    9    6    4    3
 -6.860712555474963e-10    9    6    4    4
 9.543926556548789e-10    9    6    5    1
 -1.589755843289225e-05    9    6    5    2
 6.602197782341454e-11    9    6    5    3
 -0.0008457468941721553    9    6    5    4
 7.33732484972899e-11    9    6    5    5
 3.086634785694501e-15    9    6    6    5
 1.309034631843849e-10    9    6    6    6
 4.150039791488281e-15    9    6    7    3
 1.764847548038201e-15    9    6    7    4
 -1.359833140627627e-14    9    6    7    5
 -5.196403432615032e-10    9    6    7    6
 1.123157402869956e-10    9    6    7    7
 -0.003764709397739546    9    6    8    6
 0.01623074616772897    9    6    8    7
 -9.478192857694295e-11    9    6    8    8
 1.516403197555241e-15    9    6    9    3
 2.826199072270525e-15    9    6    9    4
 0.01636499092858964    9    6    9    6
 -4.091554844100504e-05    9    7    1    1
 0.3410092284587357    9    7    2    1
 4.091394582164578e-05    9    7    2    2
 2.911458257003673e-07    9    7    3    1
 -0.004845781593244301    9    7    3    2
 -3.951225632175265e-08    9    7    3    3
 -0.004755040161846715    9    7    4    1
 -2.8566481676774e-07    9    7    4    2
 0.2211660633889757    9    7    4    3
 3.847948733267259e-08    9    7    4    4
 -5.352926531281288e-08    9    7    5    1
 0.0008916502550969021    9    7    5    2
 -3.703114104511745e-09    9    7    5    3
 0.04743561328107686    9    7    5    4
 -4.115541710746092e-09    9    7    5    5
 9.403425792482293e-15    9    7    6    3
 1.058397984684147e-14    9    7    6    4
 -1.595972177706992e-13    9    7    6    5
 -6.303017349762439e-09    9    7    6    6
 -3.083296485867419e-15    9    7    7    5
 9.073949562245958e-12    9    7    7    6
 -7.340401214792557e-09    9    7    7    7
 1.756089807745616e-14    9    7    8    4
 -4.339880549442816e-14    9    7    8    5
 0.1948543098841473    9    7    8    6
 0.003764709397739513    9    7    8    7
 5.317089833788977e-09    9    7    8    8
 1.338630096810625e-15    9    7    9    5
 -0.003764709397739554    9    7    9    6
 0.2274500469804658    9    7    9    7
 2.384335355999374e-13    9    8    2    1
 -3.248954850747045e-15    9    8    3    2
 -3.180473768354133e-15    9    8    4    1
 1.569239050260904e-13    9    8    4    3
 3.372442336556775e-14    9    8    5    4
 -0.0005944064841812601    9    8    6    6
 3.03117926032516e-15    9    8    7    4
 -3.716520021240164e-15    9    8    7    5
 0.01666401211556105    9    8    7    6
 0.0005944064841812269    9    8    7    7
 -7.918867076423019e-12    9    8    8    6
 4.525433538375787e-10    9    8    8    7
 2.825818723962065e-15    9    8    9    3
 4.523977725078325e-10    9    8    9    6
 8.215694502372436e-12    9    8    9    7
 0.01729316251756954    9    8    9    8
 0.5544849035776133    9    9    1    1
 9.514915923118321e-09    9    9    2    1
 0.5544852004048535    9    9    2    2
 -0.004945632801597662    9    9    3    1
 -2.963605000122582e-07    9    9    3    2
 0.429945187138738    9    9    3    3
 3.084285148459345e-07    9    9    4    1
 -0.005150534482253092    9    9    4    2
 6.119782617355568e-09    9    9    4    3
 0.4315920936454111    9    9    4    4
 -0.001399159223807299    9    9    5    1
 -8.391493288374297e-08    9    9    5    2
 -0.006872726876529397    9    9    5    3
 9.893333404305935e-10    9    9    5    4
 0.4007835580286359    9    9    5    5
 -1.522224679915691e-15    9    9    6    3
 7.614014593195458e-15    9    9    6    4
 0.396420521387064    9    9    6    6
 -0.000594406484181244    9    9    7    6
 0.4297485456181861    9    9    7    7
 -2.933826286472354e-15    9    9    8    3
 -4.511902924177774e-15    9    9    8    5
 5.315460237217022e-09    9    9    8    6
 9.478990128991145e-11    9    9    8    7
 0.4013502002322576    9    9    8    8
 -1.109109497202184e-10    9    9    9    6
 6.220332372578134e-09    9    9    9    7
 0.4359365252673963    9    9    9    9
 5.52192688965233e-06   10    1    1    1
 -0.03167708768000933   10    1    2    1
 -2.079464052607521e-06   10    1    2    2
 -6.067143484218282e-07   10    1    3    1
 0.00505122071521262   10    1    3    2
 -7.751839205265897e-08   10    1    3    3
 0.003888300670878431   10    1    4    1
 9.326707902577514e-10   10    1    4    2
 -0.003452752223828673   10    1    4    3
 1.398492137923231e-07   10    1    4    4
 1.398818429444216e-06   10    1    5    1
 -0.0116182912468587   10    1    5    2
 8.890403062176644e-07   10    1    5    3
 -0.01417603201500739   10    1    5    4
 2.263306031131983e-08   10    1    5    5
 1.977611947771098e-15   10    1    6    1
 -2.585635223891884e-15   10    1    6    2
 1.119747661258267e-15   10    1    6    3
 -3.155119699540257e-15   10    1    6    4
 1.21353405292147e-15   10    1    6    5
 -6.775658623526454e-08   10    1    6    6
 1.768210076513559e-15   10    1    7    6
 -6.775660284944818e-08   10    1    7    7
 -8.600445738525749e-15   10    1    8    2
 -1.058571024528865e-14   10    1    8    4
 -0.001996325773746978   10    1    8    6
 -3.559322218304315e-05   10    1    8    7
 -2.440487272765977e-08   10    1    8    8
 3.559322218304385e-05   10    1    9    6
 -0.001996325773746976   10    1    9    7
 -1.381087220498136e-15   10    1    9    8
 -2.440485689868922e-08   10    1    9    9
 0.01426675873432367   10    1   10    1
 -0.02868668914794131   10    2    1    1
 -1.900090508199835e-06   10    2    2    1
 -0.02868549736739833   10    2    2    2
 0.005055624798354923   10    2    3    1
 6.059193451487282e-07   10    2    3    2
 0.001302779121139955   10    2    3    3
 9.332604514789364e-10   10    2    4    1
 0.00387948765601169   10    2    4    2
 -2.067905527341761e-07   10    2    4    3
 -0.002340406875034174   10    2    4    4
 -0.01169756450522054   10    2    5    1
 -1.398647862786853e-06   10    2    5    2
 -0.01479781834881426   10    2    5    3
 -8.51661952462922e-07   10    2    5    4
 -0.0003772123159008677   10    2    5    5
 -2.603453451931931e-15   10    2    6    1
 2.024798264370544e-15   10    2    6    2
 -3.294134016527371e-15   10    2    6    3
 1.629413710713847e-15   10    2    6    4
 0.001130806738379945   10    2    6    6
 0.001130806738379947   10    2    7    7
 -8.61846206873774e-15   10    2    8    1
 -1.065861420464894e-14   10    2    8    3
 -1.197496034571483e-07   10    2    8    6
 -2.135059167848646e-09   10    2    8    7
 0.0004061717558952036   10    2    8    8
 2.135059827827919e-09   10    2    9    6
 -1.197496067914376e-07   10    2    9    7
 0.0004061717558952017   10    2    9    9
 -4.879158205433856e-09   10    2   10    1
 0.01435081642803334   10    2   10    2
 -5.095468448441459e-06   10    3    1    1
 0.04244168931786694   10    3    2    1
 5.088953799687487e-06   10    3    2    2
 6.345232739284876e-08   10    3    3    1
 -0.00105300921987123   10    3    3    2
 -5.342930466905162e-09   10    3    3    3
 -0.002482291232031338   10    3    4    1
 -1.487952211458464e-07   10    3    4    2
 0.01586886202001301   10    3    4    3
 1.865051117203416e-09   10    3    4    4
 7.892093439551931e-07   10    3    5    1
 -0.01313409291758685   10    3    5    2
 1.12298131546619e-08   10    3    5    3